104
Lattice="15.2088 0.0 0.0 -7.6043999999999965 13.171207161076772 0.0 0.0 0.0 5.8164" Properties=species:S:1:pos:R:3:momenta:R:3:forces:R:3:energies:R:1 energy=-784.4691162109375 stress="-0.03684643656015396 -0.006449705455452204 0.015205890871584415 -0.006449705455452204 -0.019506653770804405 0.002040283055976033 0.015205890871584415 0.002040283055976033 0.011077946051955223" free_energy=-784.4691162109375 pbc="T T T"
Si      -3.82217779       6.75634658      -0.17582256      -0.78275949      -0.09251415      -0.87511593      -0.00202593       0.02299611       0.01562473      -5.30946165
Si      -1.29540288       2.92969953       2.82031722      -0.03879892       2.53397831      -0.24837377      -0.00033838      -0.00763083      -0.00371794      -6.12355238
Si      -3.29834290       7.35003768      -3.12298119       1.70094612       0.57499834      -1.04001719      -0.02915929       0.01099136      -0.01466279      -4.53202134
Si       3.45518130      -1.93616858      -2.48014451       0.76686377       1.61909597      -0.97086396      -0.01894373       0.00709330       0.00409791      -5.58396965
Si       2.90202195       2.65231485       0.46662349      -0.43188475       5.50485171      -1.17910465      -0.01834776      -0.00303119       0.00780934      -5.96807343
Si       0.57048652       1.15627759       1.54780863       1.05131585      -2.07124620       0.39177950       0.01193184      -0.01183160       0.01245952      -6.10611063
N       -6.44319128       8.52980246      -1.55583046      -2.57763651      -2.69251243       0.86879814       0.00408590       0.01530962       0.00256264      -9.25631976
N        1.86365379       2.29780877       1.83108291      -0.85519725       0.69919800      -1.49486846       0.00459497       0.01747408       0.01205495      -9.48807406
N       -1.04859677       5.64966424       0.41900140      -2.02569414      -0.05037676      -0.36976071      -0.01803739       0.00693794      -0.01796502      -9.42623973
O       -5.45419314      10.37373263       6.27924530       1.94933191       0.29587560       2.06851783       0.00299333      -0.00869267      -0.00295315      -8.63506687
N        2.50606711       4.57052075      -2.50964694       0.05082211      -1.96942605      -0.00573032      -0.00987042       0.01387347      -0.00321662      -9.55244088
N       -0.84601601       2.22742203       1.26727400       1.75154653       1.30723482      -0.82149405       0.00477214      -0.00998636       0.00965697      -9.51252818
N        6.19245370       0.15517494       1.41146012      -0.18078430       0.62189344      -0.44342315      -0.00351476       0.00349528       0.04142666      -9.56163144
Si      -5.11525064       5.91522032       1.95198956       1.37672696      -1.82789094      -3.42446977       0.01173407       0.02606331       0.01447582      -4.72482520
Si      -3.32048010       4.53006093       3.92499771       2.79201267       2.40747320      -3.55217405       0.02007055      -0.00847450       0.00627486      -5.37433106
Si      -0.80409831       7.30642325       0.84427417      -2.48634828       0.54978141      -2.13336392      -0.00181367      -0.01031150       0.01697887      -5.91301209
Si       1.61322169       3.11524133       3.41065774      -2.71514838       0.86829694       4.68366131       0.01428792       0.00177549      -0.00069124      -6.16098601
Si      -0.13370969       5.06132857       4.88199227      -0.82016794      -1.52828240       1.29666771       0.00822380       0.02419989      -0.00921555      -5.31142241
Si       1.67805276       0.42076134       4.58026077      -2.42927145      -0.74341338      -1.21666709      -0.00031425      -0.00633749      -0.00686523      -6.03513056
O        1.33197955       4.81889577       5.60508193       2.90395820       1.81806650       1.38392647       0.00342936      -0.00938812      -0.01147707      -8.31491745
N        2.15277892       2.11225995       4.77003616       0.08062143      -0.20232166      -1.05312601       0.01220246      -0.01220440      -0.01075026      -9.56218171
N       -0.03795522       3.68938200       3.72617924       2.50917306       0.43923558       0.21150762       0.00961307      -0.00661427      -0.02604748      -9.40623403
N       -3.97849570       8.46416348      -0.11716055      -0.68898101      -0.61693366       1.67235110      -0.03150205       0.02038425       0.00990051      -9.42912698
N        6.71480263       3.32888687       1.63002815      -0.62406559      -3.61025281       0.78741271      -0.01607259      -0.04091055      -0.01666331      -9.66813874
N       -1.95086326       1.84487807       3.98822217       0.31969350      -2.15917954       0.39894902      -0.00083835       0.00886030       0.00185928      -9.24795079
N        7.03977807      -0.94296876       3.92188617      -0.21024111       3.12306186       1.07940403       0.01557379       0.00966622       0.00980177      -9.23570418
Si     -10.94869222       8.07603535      -3.06765055      -1.43379249       1.86139064       0.91364851       0.00869258      -0.00735182       0.00865245      -5.69493014
Si      -6.03279022       9.76393320      -2.78079332      -0.59169567       0.04915579       1.33703574      -0.01082674      -0.00739926       0.01135650      -5.10899216
Si      -1.05847557      10.71376425      -2.65435070       2.49101168       4.63531562       0.33088339       0.00302571       0.00379308       0.02680236      -5.57261521
Si      -0.51233939       7.88326096      -2.03812538      -4.31618944      -3.59537008      -2.54463726      -0.00009769       0.00061642      -0.00700054      -6.03142458
Si      -1.24344509      11.54879288       1.07209123      -2.26575978       1.23056605       7.95649097       0.01195808       0.01720984       0.03254485      -5.18021208
Si      -5.73770491       8.68286606       0.09320862      -3.28348189       0.74045230      -0.40106860       0.00074050      -0.00860345      -0.02645364      -5.43540150
O       -6.97224573      11.08601785      -2.94234174       1.44599598       5.15477024       0.54948224      -0.00532632      -0.00811581       0.00497225      -8.66764486
N       -1.36661714       8.25187678      -0.52428197      -1.06664783      -0.51632990      -0.71392467       0.01156828       0.01202062       0.00272256      -9.61183429
N       -2.68743505      10.22693741      -2.16647963       1.39766293      -0.51144818       1.02492538       0.01245899       0.00416582      -0.01320353      -9.43032765
N       -6.88932579      13.17926669       0.19035322       1.88616501      -1.04652285       0.65324475       0.02037358       0.00130053      -0.00009757      -9.50753808
N       -4.08111178      12.40444823       1.96298797       0.85783501      -0.10329338      -2.01096753      -0.00083911      -0.00968140       0.01319960      -9.45920062
N       -4.59382485      12.36019622       4.68110893      -0.60314446      -2.27777381      -2.45496717      -0.00243821       0.01586607      -0.02595198      -9.38838887
O        3.43974079       4.19264459       0.65401791      -0.17411999       5.46447886      -0.88525372      -0.01329350      -0.00564936      -0.00249323      -8.73920143
Si     -10.63329615      12.94808625       1.38186364       0.60250553       0.97085558       1.65042385      -0.00118503      -0.00483018       0.00016949      -5.90313536
Si      -8.61544266       9.27000053       1.50211813       3.44594345      -2.42080291      -0.83640042       0.00119144      -0.01827833       0.00147712      -5.66936880
Si      -8.12365193      12.25248844      -2.74348221       1.80677309       0.02790758      -1.08861508       0.01033054      -0.00353599       0.00053611      -5.94389731
Si       2.35649971       7.68163377       0.68239278      -1.04812220       5.25200765       3.79734576       0.00733298      -0.00516693       0.00367984      -5.54183012
Si       1.84837810       9.56997222      -1.80456702       2.55630009      -1.12301041       0.61814258      -0.00958908      -0.01311412       0.00440867      -5.45901304
Si      -2.64686517       9.42243456      -0.60493924       1.00729680      -0.73563585      -0.87976551      -0.01788482      -0.01090739      -0.01505649      -5.82773691
N       -9.05503640      12.01340575      -1.35948675       0.53261266      -0.53660165       1.64024630      -0.02287313      -0.00587833      -0.00893004      -8.94558358
N        2.40722543       9.24194139      -0.15141590      -1.12194250      -1.08277024       0.27088945      -0.02777283       0.01152259      -0.00381772      -9.17753196
N       -8.99427298      12.50432315       1.59446250      -0.03558308      -1.96444309      -0.94577936       0.00390083      -0.01469988       0.00085877      -9.56918168
O        2.96632181       9.15391340       2.87254255       3.21182929       1.00123654       1.49294506       0.01783518       0.00868907       0.00342803      -8.85138166
N       -7.01145731      13.60694749       3.16634411       0.33539707       1.79188893       0.19773454       0.01354975       0.00171418       0.00175518      -9.33361745
N        0.21290054       9.45785468       3.51160487       1.06338816      -2.13138697       0.84773503      -0.01156383       0.01280338      -0.01215264      -9.53757882
N       -2.64890083      10.84178448       0.36884533      -0.85617636       0.74664202       3.26182329      -0.01826151       0.00988770       0.00716269      -9.65149379
N       -1.56750821       7.62879852       2.38150974      -0.28143538       0.71250573       1.46036772      -0.00125346       0.00161024       0.01659925      -9.60184646
Si       5.58507427       3.24505912      -2.76605251       1.40787794       0.27709643      -3.68162304       0.02130556      -0.00766084      -0.02086929      -5.23052174
Si       4.55989833       0.62837152      -3.84211050       2.58529145      -0.48495108       3.91097630      -0.01359349      -0.00469182       0.00247300      -5.57838017
Si       8.37936550       2.79264019      -3.79013333      -0.66574783      -0.93653984      -3.38437736      -0.00592223       0.01346284       0.00870422      -5.08316046
Si      13.22795775       2.24889156      -0.08735732       0.09577503      -1.06993001      -1.77080916       0.00782915       0.01268882       0.00258645      -5.58160025
Si       9.02348518       4.88475061      -0.08490518       0.74236383      -2.14564886      -2.42806206       0.01029973       0.00480315       0.00464795      -4.61515099
Si       8.51818581      -0.94005151      -0.91225833       2.51857620       4.59880225      -0.24324375       0.00840637      -0.02033320       0.00139689      -5.39857537
N        6.03847913       5.94897426       0.09437283      -0.89839186      -1.01987837      -0.39598326      -0.00954637       0.01768850      -0.00939429      -9.63381839
N        8.60301748       1.54371377       0.78548582      -0.63156103       1.80137864      -0.17387026       0.01076566      -0.01850520       0.01249011      -9.30783868
N        8.34171168       8.59007054       1.74032713      -0.85553793       2.21863126      -0.20392579       0.00197291      -0.01432103      -0.01498454      -9.77104211
O        0.79050773       7.55773851      -4.74754344       1.26694364       1.49248997       1.42487558       0.00563566       0.00192286      -0.00681581      -8.92992198
N       12.74828497       4.14546639       2.46383710      -0.42855938      -1.18188924      -1.56025517       0.01152264       0.00866091      -0.00189719      -9.74713397
N        8.02818155      -1.38797373       0.64931555       0.10878818       2.23600379      -0.19445049       0.01674461      -0.02398133      -0.00882852      -8.93667531
N        7.90089876       1.45689555       3.27510727      -1.66462017      -0.34814448      -0.17404338       0.00326243      -0.01133254      -0.03002185      -9.35691333
Si       6.09798287       1.72601259       0.36472087       2.66780426      -1.77999484      -3.43694762      -0.01198737      -0.00591308      -0.00480431      -4.94159228
Si       3.33441189      -1.62524261      -5.40858234      -5.14582662       0.31633192      -1.04980543      -0.01015373       0.00811640      -0.01562119      -5.73417956
Si       6.41592165       5.22240183       1.66345458       0.40380250       4.73594592      -1.47232989      -0.01657807      -0.00598370      -0.04040108      -5.31117064
Si       9.78502008       3.74194524       9.55046393       3.11058929      -3.68177640       3.48978708      -0.00900283      -0.01528352       0.00730069      -5.03309590
Si      12.63986625       4.99333060       6.75709344      -2.44626880       1.49593326       0.79024684       0.00449685      -0.01151685       0.01287685      -5.57104260
Si      -0.60931855      -1.19628587       0.13408672       1.58279720      -1.09342845      -2.40094004       0.00468936      -0.01181601      -0.00480497      -5.72356468
N        9.67158636       6.59507330       0.23470824      -1.24414621       0.12331951       3.23424599      -0.03948568      -0.01175135       0.00282562      -9.28717351
N       11.90434565       6.24741883      -1.73508014       0.43520866      -1.17193477       1.20615265      -0.00225852       0.00042179       0.00755054      -9.52694726
N        7.18990004       6.06302314       3.07066810       0.95904519      -2.12646597       2.32956495       0.01219817      -0.02447434      -0.01804535      -9.38445592
O        6.39922779       3.66078143      -1.37899234       0.10761541      -1.92999885       1.46704371       0.00299631       0.00098668      -0.00469430      -8.91289175
N       12.52439917       3.83236133       5.46079913      -1.24660817      -1.18677956      -0.91567447      -0.00593053       0.00816801       0.01138267      -9.45027089
N        4.35076752       1.72023819       0.67265206      -1.33112108      -1.59594269      -0.69852729       0.00014660       0.01094148       0.01852686      -9.28493333
Si       3.51005780      10.60365428      -6.05577173      -1.00443954      -0.65959623      -1.01986998       0.00063257       0.00549296      -0.00746858      -5.35187298
Si       2.51560572      12.19019441      -3.26089251       0.72224818      -2.78681825      -2.11804619      -0.00856030      -0.00019265       0.03375754      -5.20919424
Si       1.34666173      14.44578045      -0.93551700       2.99418518       1.30470112       2.30009755       0.00045571      -0.01665854      -0.00523109      -5.11344296
Si       5.64881485      10.13965741      -1.30242086      -0.60124653      -4.87244388       0.33242452       0.00058520      -0.01494391      -0.00229061      -5.50811201
Si       4.10640762      14.28857853      -1.59056132       3.46456481       0.27830548       0.46327267      -0.00672027       0.01569916      -0.00403466      -5.59556442
Si       2.10035495       5.78978376      -1.36562200      -2.38109238      -1.73234460       0.32238640       0.00652057      -0.00234209      -0.00807669      -5.67501408
N        5.22086487       8.21830116      -4.54841139      -2.23520565       0.33395186       0.79780139      -0.00898207      -0.01367164      -0.01949507      -9.44533896
N        4.46522009      14.11892362       0.14475646       0.26417607      -0.48926383      -1.26426196       0.00291871       0.01049086      -0.00687648      -9.45997500
N        3.40667271      11.66508390       1.09849267       1.68651294       0.00251543       0.61147651       0.01720603       0.00853106      -0.00707610      -9.29500413
N        2.25655070      11.27808738      -1.65914328      -0.46256982       0.21821734      -1.97663327      -0.01212689      -0.00438425       0.01593074      -9.93867898
O        6.01973082      10.05434097      -2.97788316      -1.71789686      -1.22990865       1.65268716       0.01477003       0.01885888      -0.01974196      -8.60675466
N        0.51716574       6.54087611       4.06802637      -0.96851839      -2.00066077      -1.96198423       0.01498262       0.00015616       0.00212543      -9.10506558
N        5.19679131       8.25496138      -1.58361361      -1.51679408       1.03124957      -1.87785485       0.01729641      -0.01370811      -0.00647920      -8.96203732
Si       0.57380937      13.28635466       1.81955726       1.56970784      -0.12566890       0.89209857       0.00260824      -0.00819264       0.02960578      -5.15818363
Si       4.92123095       7.26109488      -0.22405242      -3.40944898      -1.00720212       0.21278281      -0.02034207       0.00762567       0.01161543      -5.97253519
Si      -1.16102933      13.95030451       4.05621007       0.20857399      -1.43657390      -1.25272572       0.00236242       0.02680944      -0.00388017      -5.10833317
Si       8.51681918       7.22927454       3.03133151       0.06864485      -2.51855153       0.05086700       0.00163299       0.00308098      -0.00199762      -5.17887455
Si       7.03226483       5.21865834       4.65959397       1.49381043       1.59405496       1.32462069       0.01205987       0.02082837      -0.01137609      -5.32684094
Si       3.45585315       5.13106465       2.01498043      -0.16319683       1.04024780      -1.91361957       0.00811793      -0.01220702       0.00384161      -5.93523651
N        3.18134551       6.84672151       2.05848619      -0.45288117      -0.54184353      -0.92191686       0.01468165      -0.00675198      -0.00598024      -9.13873124
N        3.22415949       6.74868598      -0.53318816      -1.51878046       1.12742925      -1.59581420      -0.01288835       0.00398624       0.00121232      -9.19213414
N        2.70577779      15.29615427       4.28979358      -0.96282600      -0.44035587       1.37252722       0.00243409       0.02130774      -0.00249248      -9.37349343
N       -2.58173365      14.77714031       3.34101314      -0.98112831       0.22522603      -0.42128193       0.00145237      -0.00789003       0.00378232      -9.25998330
N        3.83437816      13.24195748       2.92302375      -0.59727009      -0.32332566       1.77959649      -0.01155818      -0.00833305       0.00955659      -9.54586434
N        5.00475369       4.82013309       2.61249127      -0.84697069       0.09253539      -2.43932492       0.01335157       0.01590887      -0.00420243      -9.16055417
N        6.79131846      10.20274376       0.09885372      -1.74715422      -0.96585675       0.24788133      -0.00319153       0.01850796       0.02776730      -9.23992848
