104
Lattice="15.2088 0.0 0.0 -7.6043999999999965 13.171207161076772 0.0 0.0 0.0 5.8164" Properties=species:S:1:pos:R:3:momenta:R:3:forces:R:3:energies:R:1 energy=-785.184814453125 stress="-0.03650324046611786 -0.006525490898638964 0.00841918122023344 -0.006525490898638964 -0.05552147328853607 0.008315231651067734 0.00841918122023344 0.008315231651067734 -0.013646007515490055" free_energy=-785.184814453125 pbc="T T T"
Si      -0.26872349       6.38901845      -6.28768062       0.63635678       3.65473754       0.39065089       0.00358948       0.00195450       0.00898027      -5.02734905
Si       4.95028843      -1.60355508      -0.67996743       0.98860083      -0.08642915       1.74023304      -0.00513680      -0.00280702       0.00360481      -5.55528694
Si       6.60894803       4.90921709      -2.76131578       3.56732423      -1.76439993       0.14085334       0.00501288       0.00743326       0.00334072      -5.24879795
Si       9.23568100       0.85145900      -0.19489921      -5.40004562      -3.06365876       4.28474894      -0.02097801      -0.00170314       0.00824706      -5.63247401
Si       4.13383590       1.12086246      -0.48800503      -2.62272032       0.56455134      -4.67110423       0.00716047      -0.01042505      -0.00006887      -5.79861838
Si       4.82915719       2.40459943       2.26791596      -3.68603614       2.70992937      -0.73080532       0.03039791       0.00012816       0.00094214      -5.87953001
N        1.39850581       2.06357845      -3.19817518      -2.01382879       0.56220040      -0.46662076       0.03254175      -0.00240876       0.00121015      -8.92489552
N        4.33927780       1.31078248       3.53523242       0.27190471       0.10492230       1.76489733      -0.01549558       0.01437526      -0.00490705      -9.11248469
N       -0.39627556       0.36901132      -3.23944695      -2.18645514       1.45373429       1.79630837       0.00337487      -0.00568414       0.00466401      -9.03285670
N        0.12471805      10.22294607      -3.22295968       0.27217271      -0.49853847       0.51076538      -0.00087418       0.01477599      -0.01705670      -8.97705531
N       10.55599600       5.01005704      -4.54041723      -0.59849922      -0.06568695      -2.06338271      -0.00345305      -0.02534302       0.01375695      -9.48565364
N        9.96206922       0.43874485       4.12258795       2.85859195      -0.21200149      -0.09181995      -0.00944767       0.00948375       0.01053040      -9.65012956
Si      -0.73915743       7.43609729      -3.56795568      -1.39897709       0.28301784      -0.62812685      -0.00080998      -0.01623064      -0.00583953      -5.33915955
Si       3.13867652      -0.02514923       3.40559737      -5.21270757       1.01363200       2.59410398      -0.00082500       0.00388326      -0.00545812      -5.55250126
Si       4.11147336       4.82734232      -1.59202606      -3.86201235      -0.77623673       1.53671100      -0.00803275      -0.01313545       0.00080844      -5.80100876
Si       6.57524831       0.28228082       1.15430079      -0.99096797      -2.06602765       3.29766092       0.00375899      -0.00658000      -0.00744423      -5.72286755
Si       3.86441979       5.74832039      -4.56048450       1.29304742      -0.79286068       1.85414703       0.00448090      -0.02111042       0.00493497      -5.04844528
Si       7.72927888       2.92577890       7.18061185      -0.28766914      -3.21515812       0.19793603       0.00051659      -0.00368160       0.01867294      -5.74814993
N        2.61568879       4.46810964       1.52992075      -0.83284068      -1.64094771      -0.02902443       0.01549125       0.02746420       0.00640675      -9.21565270
N        8.80213337       2.64070858       5.74291346       1.09771398       1.39662593      -1.00904976      -0.02289510       0.01970922      -0.00120002     -10.16551232
N        2.64562934       3.99184305      -1.40462807      -0.96612955       0.27603028      -2.72656238      -0.01117808       0.00237305      -0.00238011      -9.51917529
N        4.86877728       5.12086443      -0.06717769       2.33500596      -1.27486978      -0.71492741       0.00567195       0.00044599      -0.00058517      -9.43541694
N        1.09819542       7.02426038      -3.45851299       1.67802057      -2.51095354       1.92705152      -0.01059973      -0.00346936      -0.00958656      -9.03958154
N        5.10803914       3.94414130       3.08679097       0.47137873      -1.16731610      -1.42159758       0.01457116       0.00937071      -0.01304518      -9.58428550
N        2.63046258       0.32585363      -0.78292758       2.22620454      -0.97659090       2.16201475       0.00240375      -0.00656875      -0.01113175      -9.17870784
Si      -1.43792841       9.47382958      -2.66867273       1.93908191      -0.82197363       1.61036054      -0.02023178      -0.01149882      -0.00618200      -5.11496502
Si      -2.85351220       7.07318500      -2.02733848       3.33481181      -0.08045679      -1.13954121      -0.00827247       0.01253162       0.00078364      -5.56544071
Si       0.09685411      11.59639221      -2.15984703       0.54108776       0.35105770      -2.69807444      -0.00020355       0.00220779      -0.01249576      -4.65318185
Si       2.15281100       7.34864799       0.98258014      -2.37625162       1.40524909       0.87494524       0.00457552       0.00196946       0.00339364      -5.13237435
Si       3.29492852      12.10491237      -1.77409457       0.66342267      -1.81657012      -0.80114225       0.00716059       0.00337005       0.01674647      -5.92742163
Si       1.78623690       9.81342774      -3.35731974       1.21489509      -0.53635046      -1.00380503      -0.00043488      -0.00493208       0.01002301      -5.94424778
N        2.28685219       8.96696437      -1.90649064      -2.95935492       1.01842756      -0.58513195       0.01029488       0.00114030       0.00693861      -9.54151607
N       -4.74136340       7.80142391       0.52564075       1.25837464      -2.17272012       3.88215785      -0.00852406       0.00219658      -0.00254165      -9.93592000
N        2.93488274      11.29270639      -0.31110719       3.07645801       1.29640324      -2.61847344      -0.01745933       0.00553662       0.01337008      -9.62121367
N       -2.38571913      13.06219004       0.13906276      -0.91223385      -0.40164801      -0.73473455       0.00739306       0.00692847      -0.00535893      -9.64307046
N        2.57907561      13.58154207       1.17171688      -0.67574679      -3.54753026      -3.05985103      -0.02586950      -0.00676826       0.00921380      -9.62692237
N       -2.58248399       8.64554310      -1.42447641      -2.31171713      -0.97403342       0.94352836      -0.00744969      -0.00683665       0.01007080      -8.84938550
N        3.67047771       6.43469557      -2.20532694       2.47147247       1.54136520       0.84868964       0.00652573       0.01031093       0.01505877      -9.50528216
Si       0.74078651      16.66682743      -1.77480024      -2.00398876       1.85790826       2.62733382       0.01520810      -0.00325659       0.02587900      -5.09470612
Si       1.75684723      10.02432594      -0.55713047      -1.78991609      -0.29715038       0.12207784      -0.01731771       0.00465629       0.00684285      -5.03013569
Si      -3.81433217       9.14611878      -0.32734518      -0.94979181       0.30871020       3.16665256       0.02902395      -0.01754067       0.01539246      -5.34167343
Si       3.38459993      11.99344199       1.18550827       4.83430791       0.30411772       1.30554585      -0.00530577      -0.01323205       0.01047431      -5.90986496
Si       5.37450731       9.53354619       5.00392536       0.25340392       0.98612418       3.17628405      -0.00557712       0.01407990       0.00668517      -4.28546792
Si       2.14785434       7.28387026      -2.10695003       2.70498666      -0.39215956       2.86603838      -0.01437584       0.00106899       0.00447008      -5.42842299
O        1.41276997       6.75485599      -0.60643092      -0.70167792      -1.69112176      -2.20705451       0.01717735      -0.00151744      -0.00141287      -9.69474733
O        5.48974302       8.59779557       0.53884549      -1.67302023      -0.38577723      -1.58709674       0.00453143      -0.00223666      -0.00639229      -8.95338142
N       -1.01388285       6.55839491       3.81040816      -0.04252172       0.46348368       0.07028835      -0.00142616       0.00351410       0.00843745      -9.58667207
O       -1.26785378      10.87592233       4.50156884       2.29784470       1.90345370      -3.41025999      -0.00199068       0.00272585      -0.01013856      -9.14412010
N       -0.30033568      17.75093567       1.40370523      -1.76460101      -1.24750152       0.02403064      -0.00252844      -0.01343833       0.03594602      -9.34625888
N        2.83551465      11.22123990       2.60598307      -2.09045293      -0.21163055      -0.25608768      -0.00683293       0.00888270       0.01563042      -9.69361520
O       -0.67224141      12.71606996       2.57688438       3.13192017       1.22466083      -1.34703184      -0.01547123       0.00270561      -0.01086915      -8.62207448
N        2.09385753       9.07324579       0.90003190      -0.77294188       2.61974483       2.03344724      -0.00509039       0.00150598       0.00348245      -9.56522679
Si      10.07306194       1.33825918      -3.16327798       0.51944710       0.13341497      -5.67996630       0.00081717       0.00401802       0.00369650      -5.96113640
Si      11.54102336       6.44081787      -4.96459973       0.64016343       3.96007108      -2.53409108      -0.00388241       0.00168936      -0.01296356      -5.65421540
Si       6.61620872       7.46240519      -4.86383078       1.10545108      -0.34604017      -1.69159568      -0.00896962      -0.02758378      -0.01512706      -4.88396460
Si      17.72891585       3.32089970       0.21282763       0.61775431       0.51243586      -2.91835274      -0.01024041       0.00154655       0.01575478      -5.81234175
Si      14.72926494       3.08344342      -0.09463377      -2.43889005      -3.73365556       2.54702280       0.00523177       0.02148523      -0.01016486      -5.90852410
Si      12.31095629       2.82307581      -1.87479565      -0.15617153      -0.59157292      -1.26773964      -0.00158596      -0.00203946      -0.00170904      -5.96727902
N       12.40320061       4.45160491      -2.47170346       2.05019436       2.93406758       1.52825696      -0.00173029      -0.01643407      -0.02822986      -9.11961961
N       13.95069236       2.37962766      -1.53688191       0.07263744      -0.18329410      -1.97964988      -0.01362643      -0.00424761       0.01977345      -9.44610858
N        8.79859203       2.49709989      -3.15945958      -1.03481120       1.60466757       0.92450662       0.00036848      -0.00144916       0.01237038      -9.58785033
O       12.07103768       6.15247427      -6.45206720       0.93187451      -1.00481961      -0.08382117       0.00700545       0.02308029      -0.02982295      -8.67173326
N       10.31953153       6.90733999      -2.49505849       0.34509701       1.01263077       0.69938765      -0.00012732       0.00246009       0.01042521      -9.50856805
O       14.55616852       7.52754399      -5.24758613      -1.00912504      -1.87543036      -0.14043115      -0.01010907      -0.00037852      -0.00524199      -8.66378486
N        9.82068274       4.41654070      -1.56034270       0.15431071      -0.68187769       2.88376038       0.00722702       0.01305033       0.01051576      -9.51555085
Si       6.64853434       5.39531740      -0.06018975       0.26508804       5.89700338       0.57899913      -0.00842193      -0.00358020       0.01687467      -5.07941443
Si      10.78532484       5.11815704      -2.80112243      -3.70180603       1.16520754      -0.78303711      -0.00366312       0.00572562      -0.01105011      -5.55496126
Si      10.29791610       3.84414923       0.00434607      -0.67359791      -0.39968603      -0.93993280       0.01389879      -0.03873140      -0.02687973      -5.46422011
Si      14.85518037       2.19786243       2.74068195       2.49057858      -5.78416530      -0.93942039      -0.00545716      -0.01591404      -0.00902474      -6.07176024
Si      14.07697655       4.79569581       3.69546570      -1.86571848       2.00988296      -1.65819164      -0.00923342       0.00424463       0.00030017      -5.77013975
Si      12.41224189       1.86003400       0.96394903       1.98869257       2.60709184       2.18975560      -0.00388730      -0.01346433       0.01723510      -5.71398360
N       14.58040042       4.75264811       5.42205881      -2.14380029      -0.99986887       1.19884533      -0.00334802       0.01270160       0.03860122      -9.17446065
N       11.60235062       2.80274495      -0.27804610      -0.06214137       0.56431876       0.14365713       0.02871484       0.01487649       0.00631987      -9.55832791
N       12.64622821       6.89087853      -3.75243951       0.58616607      -0.98428500       1.22247263      -0.00841546       0.00382835       0.01018271      -8.80206561
N       15.31249668       4.12619930      -3.01631077      -0.08195657      -0.26605404       0.14382067       0.00773032       0.00814331       0.00492591      -8.61143613
N       11.64951145       1.98920172       2.57712747      -0.80817188       1.33352057      -0.47395368       0.00110670       0.00396079       0.00006515      -9.43796182
N       19.05521881       2.30057734       0.72221980       2.40144206       1.41943531       0.24248328      -0.00598259       0.00236824      -0.01191603      -9.48893952
Si       6.09750425      12.24544587      -3.12298231       1.23108263       0.28330056      -3.51593771       0.01481184      -0.02338627      -0.01444478      -5.99551207
Si       5.30145107       6.91486201      -2.86820093       5.83927295      -2.22156379      -0.34931919      -0.00906190       0.01024497       0.02378276      -4.87256867
Si       8.91547713      12.76036092      -0.01236384      -1.37658663      -5.80142417      -3.39744854       0.00029258      -0.00369553      -0.00320798      -5.32939631
Si       9.76896454       9.95501003      -1.56203096       0.81514710      -1.80637603      -1.99546366       0.03475329      -0.00369990      -0.01618238      -5.38281399
Si       8.89209977      13.55359328       2.14378882       1.80958205       4.02420673      -2.51921145       0.00422372       0.00313485      -0.01414137      -5.22660214
Si       7.24817200      11.04137059      -0.93279856      -0.55960653       1.73327598       4.20951717       0.01053625       0.01708853      -0.00006124      -5.31095797
N        5.10204708      12.07603990      -4.56333405      -0.63921268       0.70576237      -1.04513769      -0.00189033       0.02522373      -0.00289987      -9.53452325
N        8.96063613      11.11251905       5.22204461      -0.67928349      -0.57899432      -0.99338926       0.01428358      -0.01437354       0.01848621      -9.34482884
N        7.07667065      10.83618481      -2.72304881       0.20173665      -1.43224626       1.93725167       0.00982102       0.00266863      -0.00986063      -9.26321197
N        7.21577163      12.73658383      -0.41031295      -0.77130892      -0.30354280       3.18336618      -0.00560203       0.01757210       0.00708534      -9.14960456
N        4.96980962      12.50599798      -1.75244415      -0.49692329       0.16174081       0.03894258       0.01345737      -0.02023032      -0.01071974      -9.36114097
N       11.95020409      10.53217410      -5.25680293      -1.73679130      -2.73432854      -1.32333412      -0.00178407       0.00924090       0.00182115      -9.56605601
N        7.95516223       8.26350335       1.73115814       0.94563802      -1.81596174      -0.04914446      -0.01573545       0.00319764      -0.00811878      -9.65139794
N       10.25229015       9.72890301       2.56380419      -0.89858677       2.48366614       1.60081062       0.01494643      -0.00291452      -0.03550947      -9.52769828
Si       5.57773293      13.10726475      -0.14539583       1.01270190      -0.60008683      -1.75116690      -0.01442850      -0.00265399       0.01456091      -5.64187819
Si       7.24820699       9.11162709       3.08422735       0.47132976       3.12264714      -0.89858655      -0.00400969       0.00619867      -0.02521576      -5.64206654
Si       9.35456978      16.90517627      -2.91735756      -2.51846465       0.08355855       0.95720808       0.01753721       0.00191544      -0.00908538      -5.97206599
Si       9.67939065       8.18104980       2.07385587      -2.98229891       3.02418879      -0.97697743      -0.01829071       0.00617847      -0.00135132      -5.60046726
Si      11.84503209      10.43198806       2.30191486       2.71318776       0.97475276      -0.12666792      -0.00550503       0.00236231      -0.00998357      -5.29448324
Si       9.04179408       7.12982025      -1.04248531       2.92810563      -0.97100914       0.98972845       0.00046942      -0.01223826       0.01311117      -4.44994026
N       11.63127917      11.65380708       3.62284616      -0.88856981       1.09083244       0.92366614       0.02478930      -0.01283790      -0.01632252      -9.41187215
O        8.67002757      15.75147064      -0.00742515      -0.26811716       0.96440273      -1.26199525      -0.00339713       0.00343418      -0.01441963      -9.00595605
N       13.94701699      15.12048470       1.49773124       2.68392904       0.24598312      -2.03031900       0.00576735      -0.01147181      -0.00780643      -9.67488170
N        6.31947692      15.74694336       1.29864409       0.15671390      -0.11481334      -0.75829802       0.00239897      -0.00388911      -0.02047835      -9.34509397
O       15.39706930      13.30658029       0.04972021       1.89737916       2.02214507       3.13037060      -0.01484057      -0.00294632      -0.01480892      -8.95578134
N        5.73944417       8.46188012      -2.21039170       0.34092529      -3.24993678      -1.33946610       0.02033484       0.01319818      -0.03093162      -9.54522061
N        8.47921307       8.72545328      -1.54759223      -1.56493514       0.30044953       0.09219427      -0.02407304      -0.00300092       0.01094601      -9.26759887
