104
Lattice="15.2088 0.0 0.0 -7.6043999999999965 13.171207161076772 0.0 0.0 0.0 5.8164" Properties=species:S:1:pos:R:3:momenta:R:3:forces:R:3:energies:R:1 energy=-790.0235595703125 stress="-0.026698706671595573 0.001982104731723666 0.009590142406523228 0.001982104731723666 -0.06293687224388123 -0.004308207426220179 0.009590142406523228 -0.004308207426220179 0.0019442884949967265" free_energy=-790.0235595703125 pbc="T T T"
Si       4.03695296      12.00082897       5.21517103      -0.30587564       1.43988532      -0.23053981       0.00965299      -0.01209970      -0.01432912      -5.20319659
Si      -3.32319422       2.88130294       3.42758005      -0.17200164      -0.47864301       0.87186773      -0.01165187      -0.00224385       0.00286738      -6.01692635
Si      11.33307937      12.61408684       8.69922872      -0.32215610       0.45524128      -0.03559117       0.01519349       0.00826773      -0.00903079      -5.54231268
Si       3.05635566      -8.93824901      -0.71397969       0.24161459       0.94652932      -0.78567935       0.01022901      -0.00688288      -0.02101611      -5.38285929
Si       3.31043059       1.81561888       5.73638161       1.05461104       0.99107161      -0.47117317      -0.00016469      -0.00887356      -0.01306546      -5.04365689
Si      13.75399003       9.55793622       3.55436491       0.75930144      -0.15733049       0.27424927      -0.01418549       0.01150683       0.00048610      -5.64498860
N       14.76706852       8.12330384       6.50787034       0.58859743      -0.11395945      -0.53544013      -0.01441362      -0.00500926      -0.02125438      -9.60381722
N       13.31717279      -0.97982120       2.31553669       0.15742567      -0.60034073       0.39591697       0.01842681       0.01072437      -0.01230989      -9.30500054
N        8.55727074       4.01740430       7.75492753      -0.54663199       0.56735375      -0.23827564       0.04753888       0.01241660      -0.00700672      -9.44839311
O       -0.66877238      15.94354860       5.48989907      -0.03806382       0.42282626       1.00498662      -0.00699544       0.01105014       0.02574538      -8.53158844
N        6.38201318       7.27621810       5.02380674       0.07084380       0.30536140      -0.56185390      -0.00140182       0.00653663       0.00077490      -9.69757915
N        4.04124704       6.66262497      -8.09268057      -0.41805334       0.29095214      -0.05949936      -0.02401063      -0.03659600       0.01211512      -9.48711371
N        6.49821426       0.11201972      -7.94544724      -0.24004320      -0.36583029       0.01452184       0.00530016      -0.00162140      -0.01918289      -9.40808511
Si      -3.62953026      25.28507478       2.41560671       1.52739624       0.79407386      -0.28177158       0.00375813       0.00013311      -0.00966349      -4.87552887
Si       1.12309267      -1.87733879       3.67233877      -0.35104932       0.55718770       0.39939269      -0.00343569      -0.01115720       0.00074939      -5.34129006
Si       5.74744519       6.52255130       0.62152092      -0.39820001       0.99124461      -0.28646775       0.00976124      -0.00425577      -0.01487192      -6.06141573
Si      11.25718293       9.80240541      -3.87525036       0.10386964       0.95430295      -1.16325008       0.01038933       0.00151244      -0.00164022      -5.44042307
Si       3.17531889       7.18970284      -0.85453035      -0.29454632       0.43625740      -0.18949784      -0.02173228       0.01196092       0.02919411      -6.11945635
Si      -0.55162865       2.22207024       6.60084009      -0.27374182      -1.01396904       0.56807759       0.02732423       0.01034607      -0.01350833      -5.75168997
O       -1.22736886       3.65196395       1.13375277      -0.38023348       0.12366014       1.38030219      -0.00369218       0.00271453      -0.03050035      -8.90444934
N        0.33891133       2.20640151       5.09354397      -0.69800666      -0.02343024       0.84238110       0.01612587      -0.00467592       0.00543445      -9.61135888
N        4.00326297       6.65432073      -5.23910575       0.32008504       0.35994187       0.44363735       0.00355119      -0.02285542       0.00844975      -9.47255588
N        4.37678514       1.89623783      -1.32110750      -0.71105515       0.65658387       0.54582021       0.01089877      -0.00078678      -0.01407069      -8.13166833
N        0.51473263       1.70617695      -3.71357704      -0.25269790      -0.06202942      -0.95392089      -0.00788692      -0.00154310      -0.01059331      -9.47155452
N        6.71532609      -2.83311054       2.11270178      -0.34711639      -0.36518398      -0.30732630       0.01238850       0.00703156      -0.00234092      -9.38376355
N       11.31326725       4.54191912       3.47231481      -0.50480626      -0.91245450      -0.11165373      -0.02088115      -0.00275134      -0.02729487      -9.24614787
Si     -17.61881678      14.40722962     -14.25585000      -0.23106234      -0.99216427       1.26412272       0.03598179      -0.03079087       0.00378233      -5.75888258
Si      -5.84997308       7.23334314      -2.25696798       0.38752038       0.66719144       0.14242978      -0.01638815       0.00916108      -0.02402729      -5.03661972
Si      -6.26938898      18.85577520      -2.46540921      -0.13783777       0.41639800      -0.09455352      -0.02024398       0.00495832       0.01763094      -5.68277508
Si      -1.95474289      17.21301292      -9.48792369       0.42576673      -0.39052426      -0.97664631       0.00738892       0.01048163       0.01543173      -5.84161621
Si      -0.12569657       4.86044770       1.06218895      -0.35933085      -0.57745252       0.40754162      -0.00319935      -0.00980407      -0.01417067      -5.83886725
Si      -0.45010606       1.56147624       9.47384952      -0.44449298       0.00045909       0.68257711       0.00996423       0.01937449      -0.02180707      -5.82680947
O       -3.56541156      17.39498044       2.04404556       0.00887398      -0.37309416      -0.09627315       0.00610633       0.01842862       0.01942766      -8.89478099
N       -3.73721843      11.44959092      -4.27400547       0.66647039      -0.30480717      -0.07301593       0.01430996      -0.00132616      -0.00879999      -9.46114373
N       -3.09686072       9.12706652     -11.06370965      -0.24029175       0.23073622       0.03013288      -0.00125347       0.00848174       0.00405245      -9.51976180
N       -4.21083203      22.08636538       4.92593844       0.19055461       0.10908877      -0.86677417      -0.02430153       0.00447588       0.01640351      -9.25610900
N       -0.58879270       8.08686920      -2.14103087      -0.57685796       0.43357265       0.73047735      -0.00754640       0.00862825       0.00558162      -9.43795419
N       18.76903318      15.73061706      -0.76175042       0.44138166      -0.26701724       0.42958276      -0.02805269      -0.00720763      -0.00619704      -9.24188209
O        3.65946062      12.93547347      -1.97343696       0.17620944       0.56114830       0.06652449       0.01115076      -0.01342794      -0.01549080      -8.56378782
Si      -6.80838985      23.91457677       7.96472681      -0.68894952       0.46614092      -0.40471428      -0.00626218      -0.01119699       0.01657071      -5.71964747
Si      -4.45834735      11.92797122      -5.80616926       0.13052988       0.79129171      -0.76248798      -0.01121718      -0.00248884       0.00175960      -5.86443764
Si      16.80016623      13.13120299       0.75468119       0.62845927       0.37888319      -0.13886323       0.01568106      -0.01091906      -0.00362543      -5.92830950
Si      -0.92204156      -0.76769968       9.60435785      -0.31054388      -0.37879676      -0.80255080      -0.00863975      -0.02253655      -0.01473703      -5.42887646
Si       9.28205052      16.47224885       5.07132712      -1.33741664      -0.07602399       0.56743978       0.01715916       0.00895384       0.02062958      -5.45221907
Si      -7.03088532       5.06995237      -8.27465361      -0.15971428      -0.25397032      -0.08112673      -0.00347143      -0.01703614      -0.03892380      -5.53750902
N       11.85315733      12.00695759       4.50534811      -0.25305839      -0.16999252      -0.36764075      -0.00692016      -0.01328787       0.00347065      -9.47748256
N        9.11145843      19.79860713      -6.79802125       0.30403552       0.05409576       0.12386545      -0.01220548       0.00384371       0.00496159      -9.28336644
N       -6.65045542       1.49202953      -4.84321074      -0.55181559      -0.30711046       0.77342944       0.00614128      -0.00527428      -0.00038600      -9.29739451
O      -13.87916981      10.16035666       3.61623988       0.46280360       0.42815830      -0.64093311      -0.00242972       0.00090891       0.00761635      -8.97790563
N       -6.49347707      -0.69245283      -0.77287984       0.63837328      -0.13534606       0.25520368       0.01449767       0.01119222      -0.01858442      -9.51920104
N        9.07013170      17.41560471     -10.88746377      -0.30609089      -0.36346286       0.55755273      -0.00483789      -0.02739885      -0.00471621      -9.38717675
N       -4.21693297       2.32155783       7.84626273      -0.10191164      -0.26662839      -0.57993800      -0.03198704      -0.00084029      -0.00211662      -9.58044696
N        1.73562847       6.96874291       2.19449106       0.06231885       0.43249277       0.54424473       0.00356129       0.00754768      -0.01081428      -9.10913205
Si       2.55634130       3.46463030      -9.69272776       0.44809575      -1.28342600       0.62318446       0.02312060      -0.00076962      -0.00133695      -5.03019530
Si      14.05646653      -0.39356662       0.84815823       0.29919304      -0.45151193      -0.86578030      -0.01419359      -0.03354036      -0.01930274      -5.63445336
Si       7.72538107       4.09855940       0.30529829      -0.20371268       0.12516161      -0.45466934       0.00122792       0.02960319      -0.01744440      -5.75487000
Si       6.17784915      -3.64295978     -10.96443115      -1.25688738       0.23354580      -1.12964059       0.01138037       0.01152891       0.01208889      -5.81338555
Si      14.38078957      14.72659938      -5.04863817      -0.05373759      -0.21958773      -0.62482925       0.01466969      -0.00946397       0.00313696      -6.00358158
Si      10.90822732      -3.26343677       6.35619445       1.16858227       0.25570346       0.32508332       0.00291143       0.02895093       0.02167656      -5.64179188
N       -0.90379862       5.65494109      -0.25377009       0.20917723       0.52597192       0.16785187      -0.01832819      -0.00042181       0.00923251      -9.28105283
N       13.38353416      -1.15772999      -0.57623067       0.12995763      -0.53472639      -0.28091278      -0.00183854      -0.01248957       0.00723498      -9.29694581
N        6.39376353       4.93041571      -2.34231357       0.62815111      -0.58589402       0.25647597       0.00143781       0.01516572       0.03241669      -9.40804982
O       12.14525786       9.40056181       3.30520423       0.71151945      -0.37462811      -0.00055448      -0.01486324      -0.01420800      -0.01474132      -8.95081937
N       13.58239927      15.52001415      -3.70195244       0.56073268       0.19812512       0.30596899      -0.00017524      -0.00527020       0.02371760      -9.67880130
N       16.74899712      10.24507944       6.49196797      -0.38706176      -1.28556547      -0.12201249      -0.02120000      -0.00393617       0.01879130      -9.36971593
N       21.34205620       0.02592600      -5.17949828       0.06159324       0.35481740      -0.50280138       0.00144668      -0.01217628       0.01230481      -8.10808063
Si      15.06214622       7.14161980      -0.71002518       0.25705553      -0.74029903      -0.04775905      -0.00083929      -0.01552197       0.00914487      -6.03753906
Si       4.02620095       9.78727153       9.33480500       0.52367837      -0.30065272      -0.07638476      -0.01741844       0.01289886       0.02586995      -5.58218294
Si       8.85894222       9.32145139       5.73030424      -0.48187782       0.40631510      -0.10004757      -0.00802439       0.00800736      -0.00979841      -5.44986826
Si      14.15177106      -4.16163211      -3.66828680       0.27200760      -0.56940015       0.59473642       0.00931942       0.01959809       0.00209176      -5.22188240
Si      11.68417964       1.64130042       6.41166065      -0.06712592      -1.14715636      -0.23937611       0.01333088       0.00522134       0.01164800      -5.84052426
Si      13.37996737      -6.63298078       9.38720703      -0.63306781      -1.18324273       0.15494904      -0.02474324       0.00637044       0.01710728      -6.01069266
N       13.84900068      20.49389314      -3.73302345      -0.00500440      -0.45866713      -0.33319575       0.00216228       0.01180747      -0.00063745      -9.68493724
N       17.70826308       0.32182247      12.02309063       0.99837289      -0.38273321       0.34263967       0.01805599       0.00281127       0.00745206      -9.72121787
N       11.85707942       6.49749843       7.14935736      -0.51819703       0.37463573       0.51083896      -0.01502421       0.01387635       0.01413932      -9.32401872
O        5.95256286       9.56972973      -5.13298518      -0.66391691      -0.10403695      -0.03634908       0.00620747      -0.00684497       0.00187530      -8.94719398
N       13.42393791       2.44440210       9.25328665       0.74249619       0.13940577      -0.59363149      -0.01021032       0.00195801       0.00691637      -7.91160417
N       12.13462792       6.78947137      -7.06226521      -0.10074086      -0.97232922      -0.01221159       0.02244037       0.00930703      -0.00394997      -9.04302526
Si      -1.76331635      12.42244837      -0.78786470      -0.18945186       0.52653301      -1.06774864      -0.00279871       0.01713049      -0.00393665      -5.92346293
Si       0.59999527      13.35796584     -13.83974834      -0.11784573      -1.84614497      -0.71926836      -0.01226696       0.03016782      -0.01184644      -5.92914063
Si       8.93766407       9.25697623      -3.46679874      -0.39858178      -0.11466826       1.36087999      -0.00771689       0.00309447      -0.00494513      -5.01398474
Si       3.37652057       7.30522815      -3.76515120      -0.04270968       0.39310878       0.65481887       0.01322248       0.00327374       0.01065697      -6.13888699
Si      16.03114442      10.80410994     -12.40252874      -0.29051774       0.57608019      -0.11930812       0.02955973       0.00123326       0.01445900      -5.53844792
Si      11.39258588       6.21745173      -2.79817430      -0.88906720       0.03894702      -0.72465902      -0.01764780      -0.00594190       0.00550561      -5.39327723
N        9.57838213      12.67335272       2.99644997      -0.17230098       0.02723216      -0.32654612      -0.00146480       0.00547151       0.00517909      -9.44730067
N        9.45691084      10.90225143      -0.56804976       0.04844291       0.39119735       1.12650704      -0.02638234       0.01238616       0.00598307      -9.58570123
N        1.17116533      12.38990219      -9.37103769      -0.52520488       0.47080231      -0.20883313       0.02431337      -0.01858789       0.01535368      -9.56486058
N       -1.80388476      22.74536355      -8.01906961       0.75023884      -0.03704454       0.45486896       0.01115853      -0.01673659       0.01386707      -9.45230985
O       16.44167323      14.85603340       9.38654788       0.11637760      -0.00608875      -0.37848647       0.02118312       0.01387443       0.02055518      -8.78381670
N       -1.30901913      18.10205734       0.76487262      -0.38246411      -0.38587405       0.27269446      -0.02756995      -0.02341501      -0.03144007      -9.43284440
N       13.33117716       1.19331442      -5.18310848      -0.25193464       0.85357832      -0.08230260       0.01862003       0.00332999       0.01467644      -9.40980649
Si       9.28335339      28.80970787       2.17409918       1.47891392       0.11238414       1.04167728      -0.00569217      -0.00461242      -0.00234939      -5.93914992
Si       7.65082751      20.55417102     -15.26174572       0.64535841       0.38533119       0.50673054      -0.00477357       0.00534235      -0.00735494      -5.76970679
Si       8.79568420      13.35493991       1.55466974      -0.08050044       0.33521183      -0.57337367       0.02035445       0.00841761       0.00904860      -5.43199641
Si      18.97993089      20.82185483     -11.60238105       0.19072907      -0.65237787      -0.74240747       0.00336182      -0.00361073       0.00012878      -5.64203411
Si       6.62301969       9.01619223       5.04960648      -1.03051535       0.44208843      -0.09340656       0.01114196      -0.01284689       0.01633868      -5.41068512
Si      12.53746883       5.53584776      -5.86966479       1.20288699      -0.55762915       0.40528413      -0.01453665      -0.00108239      -0.01221296      -5.35552698
N        1.29332840      17.72626444      -0.88081922      -0.34140055      -0.00474702       1.03876738      -0.00356489       0.00814247      -0.02268402      -9.52735591
N       14.22279860      10.55985524       5.03762490       0.88401692       0.15002217      -0.30360591      -0.00045903      -0.00516424      -0.00208192     -10.15878034
N        9.49873562      17.24698482     -13.92674874       0.95035731       0.45314766      -0.60339698      -0.02414795       0.00120325       0.02060258      -9.53085351
N        2.16994193      21.09650815      -6.41291322      -1.13644870       0.30193010      -0.04647026      -0.00920261       0.01169173       0.00424880      -9.61389709
N       11.19625261      22.18785567       2.01493546      -0.06583549      -0.66742662       0.39430979      -0.01163191       0.03407010       0.00316574      -9.30867219
N       -0.27216158       5.69944922       2.56301380      -0.23903745       0.50366536      -0.14556955       0.00121453      -0.02410927      -0.00496519      -8.96446824
N       18.60902188      13.09806835       6.56915406      -0.14618236      -0.02165606      -0.20154757       0.01180165      -0.02093614      -0.02264766      -9.95917201
