104
Lattice="15.2088 0.0 0.0 -7.6043999999999965 13.171207161076772 0.0 0.0 0.0 5.8164" Properties=species:S:1:pos:R:3:momenta:R:3:forces:R:3:energies:R:1 energy=-788.1103515625 stress="-0.016043737530708313 0.005163815803825855 0.012029852718114853 0.005163815803825855 -0.018862798810005188 -0.000458040478406474 0.012029852718114853 -0.000458040478406474 -0.007065912708640099" free_energy=-788.1103515625 pbc="T T T"
Si      -2.13729962      -3.75296744      11.98984910      -1.43019283       0.88437838      -0.70228904      -0.00766232       0.01208484       0.00694204      -5.65879446
Si       0.50512236       2.59886073       3.06279481      -0.05981504      -0.34724616       1.47908953      -0.00574313      -0.00066899      -0.01587201      -5.11472803
Si      -0.07057614       7.67845706       3.58051577       0.57022503       0.52060090      -0.53279675      -0.00841200       0.01561996      -0.00074285      -4.96654087
Si       2.19211290      -3.31736992       6.04090474       0.60743570      -0.29694999       0.40181180      -0.00789432       0.00560381      -0.00155760      -5.97588736
Si       6.75143415       1.57511000       1.58741684       0.05979831      -0.64515283      -0.72741934      -0.00210363      -0.00912514       0.01272006      -5.80805451
Si       3.35932830       3.57482311      10.28862590      -0.14762146      -0.17409600      -0.08919951      -0.01468265       0.00245312       0.00038982      -5.11047369
N        9.45082440       3.02755558      21.55630582      -0.59391272       0.59168681       0.54155689      -0.00044000       0.03403047       0.01098669      -9.34538817
N        5.51305853       5.98422271       3.86948940       0.18059296      -0.87433612      -0.45167716      -0.00398030      -0.00862117       0.02331120      -9.18003678
N        4.49842230       4.20797235       5.66955805      -0.65003338      -0.21965831       1.18978232       0.00578996       0.00480205      -0.00433116      -9.33498311
N        3.47626244       4.14869410      -3.04249354      -0.63107295       0.00499489       0.06927665       0.01465347      -0.01786917      -0.00920907      -9.34136176
N       -3.91268655      -4.88723255       3.39449693       0.81233732       0.13174395      -0.52338980      -0.02660552      -0.01358387      -0.00593376      -9.42149377
O        0.39672605      -8.28020477       8.33301766       0.63267522      -0.29039840       0.23176655      -0.00323593      -0.00046347      -0.02023581      -8.94623649
N        6.45104675      -2.04827506      -0.05012816       0.36743669      -0.09197551      -0.04876307       0.02335665      -0.01558891       0.00850320      -9.33584094
Si      -4.93122975      14.72256143      -2.87478745       0.03177648       0.29480764      -0.00566444       0.01725619      -0.00224921      -0.02299142      -5.19949394
Si       3.70125698       7.38726926       7.61006048      -1.27042134      -0.28035650       0.38109083       0.00475937       0.00084478       0.00943489      -5.56241614
Si       5.24035597       7.68700431       3.89328200       0.41331158      -0.99998948       0.47157104       0.00523835      -0.00043297       0.00341654      -5.12069565
Si      14.59480017      -5.15804098       2.32068877       0.15388224      -0.33898759      -0.15950336      -0.00620519       0.00129200      -0.00003576      -4.80757624
Si      10.55596222       3.59510819       5.39068090      -0.72785743       0.66710532      -1.57605447       0.02257675      -0.02314794       0.02095938      -5.42168957
Si       0.03530625      -2.21277820       2.06141575       0.77194782      -0.04746454      -0.61530460      -0.01955999       0.00494691      -0.00854554      -5.92088562
N       -3.07242898      10.78355054       3.59682227      -0.02906791      -0.36714707       0.06856993       0.01159297       0.02422287       0.01844960      -9.43501496
N       21.64402509      -4.40811540      10.25074735      -0.90367480      -0.08293886       0.01423150      -0.00986921       0.00491285      -0.01299150      -9.29517198
N       -4.40886756      -0.39967304       0.53743277       0.48953664       0.39176731      -0.08723643      -0.00151625       0.00774723      -0.00248123      -9.28186345
N       -4.01036495       2.01838731      17.02264832       0.52795036      -0.19305042       0.37186154       0.01221710      -0.01158229       0.00931004      -9.22701716
N       -1.30743217      13.88388580       3.04877605       0.75767992      -0.10779791      -0.58070215       0.02945109      -0.01882637       0.02288279      -9.35580802
N       -2.12257999       0.32770956      10.46428830      -0.66918242      -0.01303545       0.06709128       0.00822583      -0.00289106       0.00712256      -9.37564683
O        5.83395817       2.94878596      19.12610655       0.09350922       0.15017020       0.08856901       0.00888744       0.00822546       0.02363206      -8.77661741
N        5.45104325      -8.96910876       7.03104621       0.05230079       0.64496740       0.18896239      -0.01368811      -0.01069396      -0.00337212      -9.51733756
Si      -4.70197876      10.18863782      14.76208522      -0.14298904       0.32006405      -0.16994646      -0.00201222      -0.01922386      -0.02129417      -5.70334107
Si      -0.66072308       9.44635767       0.21134497      -0.36574573       1.48740973       0.94454081       0.02635804       0.02264360       0.00835027      -5.84313589
Si       6.41334618      16.06137346       0.45420115       0.02179145       0.22960527      -0.02436939       0.00195679      -0.01795524       0.01022053      -4.69781643
Si      -5.37883285       7.14685175      -8.73973933       0.77253093      -0.71581138      -0.12254870      -0.00446638      -0.00987381       0.00045013      -5.61086422
Si      11.63724345       3.88638307       2.14964040       0.44083057       0.50330256       0.13719346      -0.01542301       0.01376314       0.00833300      -5.61636931
Si      -1.77114588       1.64310974       3.47984666      -0.60256893      -0.45781095      -1.45972003       0.00948508       0.00583631      -0.02036405      -5.07218891
N       -0.23313766      -1.54084238       9.49212804       0.30789791      -0.71378963      -0.20472136      -0.00502030      -0.00290935      -0.01447260      -9.51073623
N        0.57566689       4.35560280       8.78267515      -0.49661727      -0.45180052      -0.40483763       0.01681477       0.00743702      -0.00457268      -9.52504468
N       -4.30965007       8.55036310      -3.10882928       0.74322757       0.32538498       0.16123541       0.00737590      -0.01731539      -0.00835228      -9.45471740
N       -5.36706539      19.63962474       7.26575958       0.57206720       0.00594150       0.05390974       0.00137122      -0.00030005       0.00114612      -9.70505071
N       -4.64402515       6.34800877       4.26442426       0.55999230       0.98039965       0.36021391       0.00284303      -0.00313798       0.00108698      -9.41871667
N        5.76696231      18.76092659      -1.16948587       0.34851195      -0.23889791       0.82459841      -0.01180705      -0.00677587      -0.03136218      -9.40436769
N        6.51521420       0.92825920      -5.82135298       0.06609737       0.14464672       0.29308220       0.00901300       0.00319443       0.02292512      -9.46580529
N        0.67049216      -5.40703681       3.45086468       0.29706740       0.44143571       0.58663455       0.00637679      -0.00603332      -0.00455689      -9.47204661
Si      -2.87614687      11.08402266      -0.48719063       0.22617094       0.29584091      -0.12558061      -0.01679876      -0.01998498       0.01088550      -5.91845328
Si      -6.30510372      12.28716244       9.99752658       0.64889413      -0.52633679      -0.28577132      -0.00419044      -0.00733735       0.01240064      -5.74213940
Si      -1.59420277       9.95725012      -2.61851407       0.19939956      -0.23121920      -0.66701118       0.00570402       0.01744777       0.00669082      -6.00486666
Si       5.88523902      13.17244175      -3.99593766       0.94029224       1.46811979       0.53593028      -0.00572928       0.01281553      -0.02036047      -5.22639328
Si       4.17367449      18.25113186       9.93709356      -0.28833054       0.91846713       0.13086600      -0.01293988       0.00120074      -0.01644078      -5.48493439
Si      -6.67429738      13.49277300       1.21791692       0.36742336       0.33948558       0.68243217      -0.00126556       0.02325652      -0.00670284      -5.67457443
N       -7.14634760      15.21880468       7.08398061      -0.13500580      -0.01309652       0.42440734       0.01278819       0.00856644       0.00264788      -9.60383725
N        6.23520536       8.23665622       5.20746134      -0.53320601      -0.23132234       0.56405136      -0.01196521      -0.01170050       0.00317457      -9.67837548
N        2.42673159      10.58479536       4.82361764      -0.15193884       0.20315235       0.19825149       0.00256798       0.00780934       0.00738481      -9.48607421
O        0.55765796      15.47503087      -3.80735249       0.42132588       0.79642967       0.17666818       0.01690730      -0.01847901       0.00750794      -8.63436878
N       -9.15953791      22.23710756       1.72396855      -0.54493218      -1.02290617      -0.49455884       0.00549621       0.02504240      -0.00898134      -9.36678290
N        3.86402992       8.72787293       0.62503736       0.03219459       0.47059736       0.21244377       0.00176671       0.00801873       0.00357490      -9.54976201
Si       5.66833252       6.07165739      -3.76176487       1.00373191      -1.20479060       0.34658980      -0.00145182       0.00051483       0.01315753      -4.52736765
Si       3.37083088       0.76673783       5.74261650      -0.14889434      -0.66449771       0.89345382      -0.00051284       0.00627479       0.00084063      -5.52158982
Si      16.04747588       7.07272867       0.57441085       0.23121543      -0.74606898       0.51674749       0.00250064      -0.01801911      -0.01854938      -6.14854056
Si      17.97045479      -6.31977272       5.90947212      -0.47978348       0.34148111      -0.22659760      -0.01768637      -0.01959823      -0.00230724      -5.41269833
Si      17.63754942       9.72616412       0.53646099      -0.15760940      -0.21487705       0.76340477      -0.01104870      -0.00119779       0.00897776      -6.03607470
Si      12.11711986       0.75617074      17.64922584      -0.32641306      -0.59277109      -0.50631586       0.01192274      -0.00532061       0.01714544      -5.51694113
N       -0.97112960      -9.84621230       4.26977419       0.26365723       0.02094632      -0.09644126       0.01231917      -0.00523175       0.00905320      -9.44482350
N       14.86425577      -0.81119546       1.08552882      -0.92826067       0.01382604       0.14948541      -0.00232816       0.00576037      -0.00670832      -9.45248628
N        4.35292396      -6.24305675      -5.00066489       0.56735265       0.22560004      -0.55126454      -0.02427284       0.01770929       0.01151091      -9.60552526
N        9.49076766      13.17461810       8.55361242       0.42930561       0.22786878      -0.04331473       0.00297018      -0.00963444      -0.02638964      -9.37950873
O       15.61637401      12.87489958      -4.25885953       0.88065251       0.78264344       0.33980288       0.04320197       0.00173772      -0.00025759      -8.56872165
N       -6.00837716       8.20443374      17.55127621      -0.52623495       0.38568003      -0.14453930       0.02889107      -0.00566075      -0.00108138      -9.39590859
N        3.91751857      -3.37443447      11.98619563      -0.51202764       0.34027248       0.62717736      -0.01945636      -0.00516469      -0.00088238      -9.57105327
Si       0.44957892      -9.76267579       9.05242198      -1.29118527       0.22722195       0.04697149      -0.02038080       0.00962382      -0.00885594      -5.79344374
Si       6.10004400       4.84074264      16.65248093       0.16929588       0.30538474       0.95050847      -0.00726919      -0.01800172      -0.00566217      -5.61396271
Si       5.91241551       1.72492930       4.39193281      -0.30634776       0.28524766      -0.31248170       0.03196082       0.01402868       0.01536120      -5.76803595
Si       2.46847234       9.54669397      15.05835815      -0.17533170       1.14949714      -0.97658759      -0.01807344       0.01266989       0.00228249      -5.83419901
Si       4.30521982       3.38297560      13.01897140      -1.55554819      -1.59266092       0.66227450       0.00351912       0.01115249       0.01220183      -5.58977276
Si      15.40708459      -5.71856877      -0.69655071      -1.15382309      -0.46956946      -0.40117252      -0.01575506      -0.00732157      -0.00410682      -5.77130181
N        7.64394048       5.73077220       5.68597574      -0.71491896       0.17812401       0.31782047      -0.00208703      -0.00589225      -0.00282674      -9.04177260
N       10.07463338      -2.55249701       7.86328194       0.56381880      -0.44141214       0.09116920      -0.00568698       0.00904676       0.00141077      -9.44564319
N       10.18556272       0.00328819       3.50409538      -0.76429274       0.29293690      -0.36076476      -0.00088819      -0.00620365      -0.02868957      -9.50388646
N        6.63593510       9.60681422       1.65501815      -0.27944969       0.29449256       0.26496875       0.01236471      -0.01681578      -0.00085592      -9.65883851
N        8.56142021      -4.35656397      -5.38601368      -0.72175608      -0.39805342      -0.09434439      -0.01824990       0.00584730       0.00942126      -9.38396382
O        7.18845767      -2.12083664      14.64842642      -0.33701797       0.32754099      -0.01954179      -0.00181726       0.00025261       0.02431800      -8.77484834
Si       8.91293350       5.37405743       1.19379976       0.66292382       1.20730854      -0.70921349       0.02113533      -0.01593481       0.01302810      -5.14048773
Si      -0.17196860      12.57478299       5.81388295       0.32480365      -1.02920476      -0.42435257      -0.00013250      -0.01674126       0.00460032      -5.48208815
Si      -4.34934638      25.32052610       2.15859560      -0.20655224      -1.25019727       0.27537454      -0.00820304       0.00618773       0.00767322      -6.01736313
Si      12.06219027       8.53803313      -4.40064683      -0.15483763      -0.79986573      -2.05766875       0.01695788       0.02091716      -0.00125694      -5.95763737
Si       9.15032023      16.48350873       0.26935076       0.64351941      -0.59152243       0.84526627      -0.00920123       0.00007352       0.01378167      -5.18507582
Si       5.75409642      19.03234622       0.65733614      -0.02527138      -0.08067381      -0.67217494      -0.00016067       0.02723610      -0.01039654      -5.92366797
N        3.99104733       1.75724094      10.15656730       0.09919394      -0.10497700      -0.61328751      -0.00372405      -0.00218406      -0.01821795     -10.02249837
O        1.13277316       8.65974764      -8.50828250      -0.14379581       0.42135545      -0.37549883      -0.00227717       0.01435687      -0.00689096      -8.79743135
N        9.34101998      13.39177545      -0.32677030      -0.20050557      -0.20043352      -0.47236743      -0.00323644      -0.00213105       0.00473939      -9.61365199
N       -7.58696218      17.06654238      17.15831054      -0.19222169       0.07415011      -0.40633965      -0.00238639      -0.00596890      -0.00837022      -9.46306252
N        1.70956173      23.72324861       7.59976560      -0.18200745       0.15938318       0.07811895      -0.00391704      -0.00137806       0.01301534      -9.44249225
N        3.43730055       1.80714390       7.14646978      -1.12998523      -0.01389895       0.17864268       0.00356954      -0.01736119       0.00526521      -9.48943400
N       10.15632978       4.09701862       1.16364412       0.28602337      -1.22236712       0.20322585      -0.00307527       0.00130644       0.00466153      -9.31392694
Si       2.95407168      14.86967132       3.78661931       0.41670437       0.48569289       0.27256391       0.01089638      -0.00050135       0.00237910      -5.53954464
Si      13.33868903      -1.28631132       4.14535876       1.08842726       0.92071056      -0.05525050      -0.00285855      -0.00693685       0.00494311      -5.63913876
Si       1.97753852       4.80622437       7.79792013       0.33287436      -1.29126374       0.49240109      -0.01293647      -0.00894967      -0.02357805      -5.39138085
Si      15.13314486      12.63453128       8.98177073      -0.42050520       0.71509027       0.18510932      -0.00495112      -0.00863707       0.00258923      -4.93183523
Si       2.14261488      12.31097922      10.82089460      -0.02311835       0.33701716       0.44201104      -0.03916737       0.00651880      -0.01880939      -5.67847306
Si      15.01431070       5.08018956       4.33336605       0.04923806      -1.12238332      -0.49628151       0.00414243       0.01230156      -0.00278386      -5.73360544
N        8.25495893      19.71471564      16.32516397       1.29698575      -0.29146172      -0.03685462      -0.00906433       0.01451931       0.00189309      -9.42586827
N        7.08855947      19.78416226       7.34466646       0.06952232       0.85131083       0.11725890       0.00031939       0.01560527       0.01176977      -8.30773807
O       -3.40373173      12.55010326       5.82677853       0.90986832      -0.30253813      -0.11300767      -0.01505574      -0.00729269      -0.01441689      -8.97897899
O        5.28475812      10.80206745      16.93234224       0.80369661       0.32708660      -0.08066949       0.01024224      -0.00142598       0.00429808      -9.09884584
N        4.92346444      11.87415434       8.40879559      -0.56002383      -0.28106303      -0.45812642      -0.01226559       0.01025417       0.01608917      -9.21868253
N       -3.36748415       2.22314414      20.18612761      -0.46464401       0.13722867       0.73731284       0.00157207       0.00472701      -0.03309263      -9.36765599
N       17.26130067      -2.41197384       4.54992104      -0.12436769       0.63252450      -0.88582650       0.01347852      -0.01616322      -0.01050068      -9.48103452
