104
Lattice="15.2088 0.0 0.0 -7.6043999999999965 13.171207161076772 0.0 0.0 0.0 5.8164" Properties=species:S:1:pos:R:3:momenta:R:3:forces:R:3:energies:R:1 energy=-790.8018798828125 stress="-0.01674911566078663 -0.012533972971141338 0.014465688727796078 -0.012533972971141338 -0.038669195026159286 0.012880804017186165 0.014465688727796078 0.012880804017186165 0.019456131383776665" free_energy=-790.8018798828125 pbc="T T T"
Si       3.93256187       0.36369650       6.77771231      -0.31006892      -1.06621955      -0.29940848      -0.00124687      -0.00074941       0.00795889      -5.62032419
Si      -5.55318873       8.59764398       0.42564989       0.44575040      -0.16360417      -0.38945320      -0.02336217       0.01483193      -0.00180277      -5.87926823
Si     -10.98971295      11.86702508       6.90161325      -0.24122525      -0.66925987       0.01332868       0.00377500       0.00116007      -0.00155096      -5.38849503
Si      20.68718825       5.17227737      -5.89334273      -1.16989870       0.12851976      -1.04723691      -0.00777340       0.00665053       0.02039702      -5.71619326
Si      12.53568790       4.30326215       5.20426825       0.05874096      -0.15731920       0.65409386       0.00714341      -0.01771438      -0.00895709      -5.57329613
Si       8.35258254       2.27416598       9.27549212       0.08274943       0.12628835      -0.64240423      -0.01094414      -0.00931132      -0.00118329      -6.08639771
N        3.07340628       0.72558794       2.44285473       0.20004296      -0.42657164       0.23946057       0.00014642       0.01425857      -0.00231136      -9.52160001
N       12.51321481       2.96155280      -1.62161649      -0.23371286       0.80691905      -0.41068663       0.00695631      -0.00577763      -0.01313716      -9.46920562
N       -1.62886715     -16.92562401       8.09543671      -0.50123546      -0.87564732       0.07252718      -0.01202603      -0.00189140      -0.00672728      -8.78020310
N       -1.46149483       3.94426155     -11.05320419      -0.57145706       0.30143334       0.15623385       0.01109791      -0.00249001       0.00557281      -9.53474593
N       12.92398427       5.93597920      10.20156112       0.25677823      -0.42630549       0.02323942      -0.02090971      -0.02020258      -0.00825911     -10.08263564
N       -9.78880811       8.84778611      15.82303461       0.22018335      -0.39085838       0.86236247      -0.00868444       0.01494122       0.00528209      -9.80574822
Si      -2.82947995       7.22511544       0.01628372      -1.46756283       0.19969391       0.86199957       0.01295856       0.01385880       0.01707888      -5.70916134
Si       1.43307748       3.99452205       2.84609555      -0.25967876       0.96068140      -0.33588145       0.01779401       0.01979909      -0.01046616      -5.83440596
Si     -12.95526305      10.99088980      -3.09049412       0.31793616      -0.97067810      -0.04840762       0.00860283       0.01187608      -0.00620740      -5.91661698
Si      -0.81511399      -5.66802997       1.33414264       1.33471422       0.87821722      -1.48712708       0.02817011       0.02611258       0.01455840      -5.93943983
Si       1.12158254       7.49385901       6.10546109      -0.56516537      -0.04353472       1.69419675      -0.01352277       0.00605851       0.00655371      -5.37020880
Si      -2.20726826      -3.36109855       8.58139064       0.32638751       0.65537004       0.41502810      -0.01535673      -0.00016100       0.00173227      -5.90542752
N       -7.53775882       1.97426072       5.01198322      -0.38574425       0.09737718       0.23950682      -0.00320498      -0.01019068      -0.00500682      -9.54048324
N       -5.64354392      -1.05326580      -1.70969370      -0.64274989       0.34281487       0.32300344       0.00065560       0.01236396      -0.02046944      -9.48929238
N       -5.15982698       1.94901161      15.23061007      -0.42205245       0.20409321       0.02590129      -0.00810669       0.00396095       0.01522574      -9.45053649
N       -1.11672659      19.67519527       8.54294254       0.07897823      -0.28260759      -0.22937974      -0.01018733       0.00605388       0.00679191      -9.61107135
N       -4.28739610       4.62667358       8.38973612       0.12482256      -0.38295228       0.22220390       0.01422643       0.00747320      -0.00267428      -9.18101573
N        5.80187599      12.56887577       1.30513347       0.64348641       1.10434078       0.57460220      -0.00919779       0.00069777       0.00995404      -9.46203685
N       -6.28266719       8.96133675      16.21447452       0.10185604      -0.60828712      -0.02062395      -0.00571732      -0.00564545       0.00213589      -9.43579841
Si      -0.48606107       6.05065533       9.97163651      -0.80166720       0.18497637       0.78373282      -0.00678641      -0.01053977      -0.00531430      -5.63463265
Si     -12.82384770       2.78990207     -11.73950267       0.06484928      -0.44728090       0.75946925       0.01069069       0.00934380       0.00342473      -4.96661907
Si      -3.42390522       9.22262060      -3.17661437      -1.06358977       0.64454303       0.28236348       0.01819439      -0.00705996       0.02652982      -5.55317122
Si      12.01132233      10.45793755       0.26161078      -0.56665235      -0.73482045      -0.43478665       0.00051279       0.01818107      -0.01132774      -5.14714152
Si      -0.78530027       5.37001499       1.27385890       0.19469971       0.91101463      -0.42145133      -0.00570004      -0.01096418      -0.00684037      -6.07177454
Si       8.73241979       1.70428735      12.22261386       0.06458580       0.39908086       0.77930056       0.00621401       0.00885811      -0.00876082      -5.38035017
N       -0.63252077      -2.62824175      -0.04119241      -0.46879207       0.73615133      -0.49483457       0.00412397      -0.00941728       0.01398882      -9.61243749
N        1.24190194       3.19719582       1.21210721      -0.08139177      -0.54687150       0.85963426      -0.00503367      -0.00620171      -0.02937421      -9.44568419
N        5.56737754       4.32282785      -1.64233623       0.00884730       0.01834839       0.26845848       0.00258154       0.01324843      -0.00289842      -9.43302703
N       -6.71995015       8.10842798       1.67896932      -0.03858294      -0.47518711      -0.46156946      -0.00477344      -0.01794936       0.00149998      -9.31355882
N       -4.52637580       7.23835016       5.86090724      -0.04293840      -0.66949980       0.18085982       0.00257499       0.00529945       0.00749230      -9.50800872
N      -12.31371200       4.83186816      -2.47360951       0.76603344      -0.41094002       0.31579668      -0.00223961       0.01624705      -0.00473906      -9.37011456
N        1.12178783      -0.84655745      18.64279216      -0.60425051      -0.44059464       0.84697580      -0.00715075       0.00822660      -0.00821252      -9.16205239
Si     -18.22744227      16.17346658       7.10809241      -0.80632409      -0.60213708      -0.01160717       0.00836444       0.00375387       0.03936607      -5.04293114
Si      -0.38448328       2.56932492      18.34493022       1.11481667      -0.07729004      -0.70938591      -0.00895132      -0.00500476       0.00697745      -5.92544371
Si     -15.65901091      10.14951360       3.39711330      -0.11167305      -0.15985655       0.08891037       0.00012136       0.00163986      -0.01027149      -5.71823031
Si       7.98011167      10.50618801      -1.45324509      -0.04215663       0.16954528       0.45560240       0.01228291       0.00443920       0.01164271      -5.56779724
Si      -0.69533922       9.10019443       6.38962444      -0.14058525       0.76351156      -0.26169022       0.00226311       0.01576754      -0.00512245      -5.48798281
Si      -3.32654826       6.12518889      14.41217338       0.55330172      -1.49203510      -0.43405672      -0.00864980       0.00629294      -0.00649676      -5.78819042
O      -10.94422457      10.76057739      -0.15707382       0.75038543       0.03257449       0.21196165       0.01675998       0.00516153       0.00818694      -8.93272626
O        3.34486683      -8.48162376      11.24569487       0.06805457      -0.53920952       0.41169737       0.00730772      -0.01170450       0.00106040      -8.66910875
N       -4.15351773       7.63598257       8.79477236      -0.25340051      -0.11710693       0.55239143       0.00048061       0.00526845      -0.02154420      -9.42101932
O        1.17870743      18.67562896       0.79547858       0.17743562      -0.07604298      -0.06536533       0.01813585      -0.00787365       0.00498383      -8.82374179
N      -16.94210925      17.38626044      12.90398906       0.43089116       0.24045910      -0.06069735      -0.00093943      -0.01264599      -0.00243512      -9.57363963
N        8.09703282       3.95211364      14.62759390       0.32263278      -0.17705620      -0.20886048      -0.00811206      -0.00914672      -0.01248851      -9.44684625
O       -5.69686416       3.09044371      -4.87791621       0.35271939      -0.30253176      -0.84791047      -0.01789175       0.00659362       0.00386727      -8.54178083
N       11.54915751      -2.40067236       8.27997284      -0.41841089      -0.08646073       0.38144186       0.00870018      -0.00857375       0.00503388      -9.46991754
Si      13.19170674      -6.03113579      -1.71341835      -0.08588634      -0.26676924       0.35366568      -0.02427554       0.01034218      -0.00742395      -5.74496657
Si       3.73079135     -10.24685721      -8.70257514       0.80533204      -0.27748472      -0.65283307      -0.00314434      -0.00364205       0.01825445      -5.92454773
Si       9.30267391       7.81307630      -2.54314317       0.58566038       0.14355195      -0.28329647      -0.00635314      -0.00950447       0.00579097      -5.82528788
Si       5.48716155     -12.40761842      13.93119831       0.45041973       0.66571142       0.18648879      -0.00676258       0.00307764       0.00148354      -5.81450373
Si       4.10275185       3.54899255       9.39441613       0.04972096      -0.49727391       1.01736180      -0.00720153       0.00624675      -0.01296785      -5.26808935
Si      18.99588488       1.28344767      15.57607230       1.22804273      -0.03996858      -0.58682774       0.00785771      -0.00565740       0.00293231      -5.45303732
N        5.54322559       8.75847504       1.36015527      -0.51483515      -0.80346263      -0.51870082       0.02005213       0.00983028       0.00512759      -9.53737903
N       19.52689978     -11.28718850       7.45265278       0.31205798       0.49600092       0.25766888       0.00492807       0.00330147       0.00811549      -9.10404372
N       -9.85806278       0.55746545       3.90522643      -0.19651610      -0.39768773       0.10803375      -0.00555137      -0.00953236      -0.00615684      -9.57043338
O       19.04660450       5.54541112      -5.82197631       0.27189172      -0.00386489      -0.11474317      -0.02092975      -0.00166810       0.00034717      -8.66252697
N       15.50677167      14.43009449      13.73893008      -0.01814365       0.95025235      -0.48050551       0.01280287       0.00503094      -0.00997970      -9.43446755
O       -0.16772603       7.53966650       9.35902353      -0.21669186       0.02892016       0.28509970      -0.02251637       0.01725493       0.01266788      -8.88819683
N       16.56432813       2.83810526      -1.65270052      -0.46132665      -0.34839545       0.21822126       0.00718029       0.01206043      -0.00063616      -9.43141484
Si      -4.56702518       0.37276020      15.83214435       0.18243645      -0.64398228      -0.05061922       0.00933881      -0.01305636       0.01928836      -5.38320738
Si      10.87813272       0.76393240       6.49224108       1.18746517      -1.38998413       0.14037089       0.01708763       0.00855045      -0.00588924      -5.08792120
Si      -5.39055531       5.87338210      11.20407508      -0.41157620       0.16192550      -1.31382103       0.00170185       0.00097299       0.00272161      -5.53546721
Si       7.76851915      -0.43198161      25.07602868       1.75844201       0.15439675       0.25634302       0.00712587      -0.00585066      -0.00736447      -5.66208369
Si      -0.39404507      -1.63438821       1.36942763      -0.26410106      -0.52366036      -0.69705179       0.00409822      -0.00488209       0.00106309      -5.99273974
Si      16.80212558      -0.14873040       2.70967508      -0.23325681       1.34250207       0.51759954      -0.00311552       0.01140322       0.00883406      -4.92909724
N       -2.22053321       8.78504511      -0.21347049      -0.74638139      -0.62655736       0.27084899       0.00880523       0.00829290       0.00685337      -8.85124469
N        8.79621312      -3.51138286       2.94681876      -0.55925176      -0.17185808      -0.07187337       0.01187070      -0.00128722      -0.01833542      -9.63329387
N        9.13974256      -1.43627382      -4.51532939       0.09557835       0.33577788      -0.15450654      -0.00775677      -0.00221860      -0.00430699      -9.27611899
N        6.94831752      10.67954954       8.71812112       0.42765159      -0.01683409      -0.35496351       0.00488532      -0.00802279      -0.00990351      -9.55989575
N        4.66379751      -1.17427902     -10.39654658      -0.13420777       0.44986223      -0.27688887      -0.00140832      -0.01387825      -0.02960965      -9.15009761
N        7.25072381      -0.37576846       5.96440043       0.05873103      -0.16061629       0.38101951      -0.01018889      -0.01232027       0.00284023      -9.33579469
Si       6.33417807       0.90965005      -6.33506549       0.05206296       0.29729078       0.56211251      -0.00015634       0.01174229       0.00508038      -5.88162428
Si      16.60629078       7.99297874      -8.44490101      -0.94732232       0.31259273      -0.32609210      -0.00029929      -0.01534119      -0.00653248      -5.62966257
Si       7.87825400      14.68604035      -7.79773789       0.43682598      -0.44079259       0.15490612      -0.00361678       0.02052027       0.00622451      -5.51589876
Si      12.81171373       1.41230170      10.83278780       0.70191529       0.16474830      -0.16369920      -0.00688124       0.00053676      -0.00710970      -5.19389063
Si       6.55895007       4.75453612       8.61519797       0.24397604       0.32680354      -0.24425431       0.00525895      -0.00267871      -0.01698972      -5.93958813
Si      -3.98789913      11.01053640      -1.76639576       0.06899605       0.68739523       1.01886040       0.02100922       0.00172161       0.01903589      -4.82881600
N       -0.01144956       5.01929211      -2.99087488      -0.82608362       0.51661603      -0.93550290       0.00359229      -0.01462415      -0.02787507      -9.61787391
N       -0.15732660      10.27287083      -6.47852827      -0.49246491      -0.28612050      -0.05631873      -0.02286415      -0.01201400      -0.00031991      -9.26757121
N       -2.22129562       6.36922925       1.45278427      -0.30443795       0.07897487       0.08804607       0.00224016       0.00954962      -0.00815092      -9.46901965
N       12.83167383      14.65756267       0.70394487       0.00503304      -0.45615670      -0.15663307      -0.01114373       0.01137552      -0.00547218      -9.47401643
N        4.77743114      13.42461391       3.78838266       0.39745287       0.49299387      -0.43003925      -0.01276357       0.01424724      -0.01774591      -9.19443583
N       17.40728620       7.45467091      -1.19001573      -0.03555784       0.46667837      -0.05908004       0.00012484      -0.00798526       0.00906014      -9.51666903
N        2.81018159       0.79725826      -0.38413775       0.66522130      -0.44359263      -0.18138951      -0.00788108       0.00808933      -0.00644597      -9.71429563
N       15.37284243       6.03134133       5.77864385       0.13706214       0.05068975      -0.02309005       0.01121837      -0.01211280       0.01675439      -9.53258586
Si       5.49495727       9.66837966      -0.12209946       0.15907629       0.31294929      -0.77540749       0.00290263       0.00449581       0.00168527      -5.79237324
Si      -5.88532083       4.40256396      13.51442270      -1.26352290       0.09379221       1.20592852      -0.00355650       0.00212759       0.00672026      -5.75564915
Si       3.42031332       6.23788763      -1.49053638      -0.25366102      -0.59550928      -0.31260935      -0.00255996      -0.01278165       0.00194719      -5.49932200
Si       1.80387831      -0.90390227       5.06316029      -0.28642873       1.29816077      -0.36630647      -0.00766680       0.03112811       0.00290781      -4.73055536
Si      12.84010248      12.20099227      14.60613849       0.40702180       0.15298574      -1.22827885       0.00726645      -0.03178257       0.01621470      -5.48163086
Si       0.85193168      11.66073825      -6.17128352      -0.54331778       0.37731822      -0.62986891       0.01332865      -0.02760633       0.01051508      -5.68543726
N       -8.27788082      -1.33990625      14.60719219      -0.28188547       0.06759392      -0.84429368       0.00657092      -0.01221852      -0.01344076      -9.48608088
O        9.52712315      20.49924015      -4.05507470      -0.70280331       0.81903333      -0.00189295       0.00029300      -0.04170659      -0.00235464      -8.94362247
N        6.93107071      14.66326112      22.79762968       0.29169123       0.41311131      -0.19034672      -0.00642702       0.01736312      -0.01208561      -9.38006139
N       -8.32910002      14.94071719       2.41888622       0.12320470       0.44754844       0.47676617      -0.01242003      -0.00058968       0.00769621      -9.51022792
O        1.45936574      19.47147487      15.62265259       0.83679820       0.05904544       0.09818290      -0.00470543      -0.01413086      -0.00422892      -8.78016460
N        6.36804249       6.65644523      -0.17349422      -0.25454024       0.22029612      -0.08710660       0.00587341      -0.02044880       0.02830084      -9.26075292
N        3.19600708      -3.52044308       7.02481429       1.24371504      -0.08212896       0.73785719       0.02036643      -0.00892264      -0.00985406      -9.35267711
