104
Lattice="15.2088 0.0 0.0 -7.6043999999999965 13.171207161076772 0.0 0.0 0.0 5.8164" Properties=species:S:1:pos:R:3:momenta:R:3:forces:R:3:energies:R:1 energy=-789.8607177734375 stress="-0.026458268985152245 -0.006838487461209297 0.011369002051651478 -0.006838487461209297 -0.013933621346950531 0.0028861411847174168 0.011369002051651478 0.0028861411847174168 0.026697317138314247" free_energy=-789.8607177734375 pbc="T T T"
Si     -17.05120679       6.89468429       6.33174117      -0.56583738       0.12973094      -0.16771794      -0.00845847      -0.00203463      -0.00136438      -5.48471123
Si      -1.82487964       7.21568931      -2.48811464      -0.21718587      -0.15148513      -0.91105865       0.00483799      -0.00051340       0.03847420      -5.56099468
Si       0.83447784      19.55370802       2.71118564      -0.82696998      -0.53952485      -0.73735479       0.01076412       0.00611609       0.02329256      -5.44736344
Si       0.88292448       2.09919565      -3.80961221      -1.24004991      -0.37968664       0.05693428      -0.00539154      -0.00024470       0.01406379      -5.77178150
Si      13.03525860      15.74446530     -11.65937608      -0.11404880       0.71372121       0.19364848      -0.00071469       0.01281798      -0.01327808      -4.96318203
Si      -6.09769282      -0.73706206       7.35599034      -0.02067696      -0.78997976       0.12861703       0.01889838       0.00681596      -0.01535887      -5.94703966
N        1.12215144       9.50933671      10.79646954      -0.47861115      -0.24996984      -0.76400413       0.00925167       0.00437233       0.01518771      -9.34751582
N        4.88280783       0.18443058       2.28648211       0.30348242       0.37566798       0.19019646      -0.00472328       0.00780043      -0.00525908      -9.30281806
O        8.36299200       9.80281980     -14.14610234       0.78910939      -0.28925563       0.85823801      -0.01210296      -0.01290070       0.01791524      -8.79508626
N      -10.87200245      12.99639844      -1.68369838       0.06334891       0.56259982      -0.50239865      -0.01253448      -0.01820666       0.00535084      -9.50687575
N        2.42417013      20.26726779      -8.34991788       0.08299210      -0.09743972       1.22432326       0.00033075       0.00285356       0.03002328      -9.33604169
N      -13.14080334      14.23048900      -1.04452775       0.64413812      -0.79681594       0.24966501       0.00196493      -0.00450790      -0.00610977      -9.59947467
O       -0.16787465      14.11310873       9.18153637       1.23384725      -0.13661340      -0.43190071      -0.00139865      -0.00080095       0.00500153      -8.67842424
Si      -0.73616284       4.51526590       1.90374271       0.08500090       0.98895850      -0.24265546      -0.00824854       0.00626561       0.00200659      -5.72309595
Si      -7.01268146      -2.44762419      21.25296374      -0.09543011      -1.26248388      -0.33048967       0.01643002       0.01536971      -0.00157901      -5.85806137
Si       8.17941031       3.90437390       4.80670000       0.15597004      -1.35651894      -0.07931351      -0.00153696      -0.00637049      -0.00917752      -5.23598772
Si       5.92470808       3.43149856       2.71110455       0.85929662      -0.58049108      -0.14219211       0.01987088       0.00498986       0.00514492      -5.15247446
Si       3.39911560       3.21739094      -1.09997147      -0.28847556       0.01986509      -0.74711987       0.01425035       0.00310045      -0.01793610      -4.30161339
Si      -0.65733353       4.95929940      10.49380346      -0.54760071      -1.23374158      -0.02434093       0.01653600      -0.00413847      -0.01393482      -5.46520430
N       -7.57813527       7.66126283      -4.00872976       0.14583494      -0.74530354      -0.20140181       0.00796577       0.01342025      -0.00085536      -9.44415927
N       -1.08813862       0.78417438      -0.39366847       0.17004905      -0.64121637       0.08593496      -0.00990757      -0.00136006      -0.00386351      -9.38211465
N        3.45769506      17.60016998      -3.91154347       0.01386415       0.31865594      -0.33284564      -0.00235981       0.00065842       0.00942987      -9.48184752
N       -0.23916042      12.53932320       1.16029421      -0.32525791       0.77599014       0.58957827       0.02510802      -0.02300426       0.00586142      -9.38063884
N       -1.76399377       5.09675676       3.24772043       0.29770994       0.66895896      -0.34334451      -0.01027542      -0.00490926       0.04267174      -9.91521621
N        1.30705879      16.47127810       3.31067059       1.11428291       0.51062597       0.08985455      -0.03052242       0.00086266      -0.00215255      -9.51217103
N       -4.02660725       4.87029557       4.78691971       0.28858325      -0.66086239      -0.55285264      -0.00559849       0.01456069       0.01095346      -9.49397111
Si       4.88234950       6.04518972      -9.97051332      -1.01371913       1.20941747      -0.47810880       0.00428611      -0.03698830      -0.01868437      -5.92296225
Si       1.66537421      17.50587209      -9.72264955      -0.39164293      -0.18506770       0.71050472       0.00540885       0.00600594      -0.00014632      -5.68674713
Si      -4.47228181       6.60879113     -12.65930138       1.06387778      -0.26629564       0.28743311       0.01540869      -0.00089192       0.00356160      -5.73802954
Si       4.97833395      14.50502434      -6.85764459       0.02055599       0.85969178      -0.31689609       0.00674966       0.00279477       0.00888786      -5.68155438
Si       4.32126696      26.11161538      -5.20949680      -2.03650297       0.29305496       0.04319390      -0.02632304      -0.02461597      -0.01179822      -5.36439425
Si      -1.13580756       9.28983406      13.51731514       0.59301557      -1.18457939      -0.58214155      -0.01209176       0.00850904      -0.01645230      -5.74390703
N        4.27973459      15.47435594     -11.22979946       0.22368827      -0.19608147      -0.02136551       0.01231920       0.01441650       0.03573238      -9.96673274
N        9.45909049      20.24424967      11.71925188       0.48733029      -0.14747946      -0.58243313      -0.00364977       0.00043392      -0.01500988      -9.67934775
N        5.77573187      10.98887366      -5.80718086      -0.03655196      -0.02199820       0.45307577       0.02323293      -0.00115869      -0.02281249      -9.58266807
N       -9.28781441      18.24050038       6.25780564       0.43780251       0.12120938       0.59218178      -0.02720205      -0.00721947       0.01307245     -10.17339730
N       -2.98138599      20.44259205       2.87989772       0.21128730      -0.27118645       0.41068506      -0.00011734      -0.03524044      -0.00125204      -9.64554334
N       -5.23793383       7.09606566       0.43322726       0.27862654      -0.06439379       0.21462165       0.00620335       0.00160426       0.00267863      -9.43737674
N        2.90368875       4.88295424      -1.55660424      -0.41982372      -0.71243097       0.38237779       0.00773886       0.02224234       0.00630176      -9.50360084
O        2.06539679       3.14277015       8.17526512      -0.26628256      -0.27811296       0.87392879       0.00800344      -0.01205052      -0.00490645      -8.90922248
Si      -8.67811775      26.97715977       7.85151170      -0.39709171      -0.23845402      -0.49403888       0.01743059      -0.01431374      -0.01070701      -5.78942829
Si     -12.81903473      15.07669256      12.03979134       0.55728410      -0.33422017       0.32423187      -0.00723782      -0.00473335      -0.00217476      -5.76165873
Si       2.69555231      12.62636839      10.31397128       0.61009247       0.17498065       0.91635104      -0.01431981      -0.00933534      -0.01019096      -6.06099325
Si      -2.05364264      20.24310065      -1.45481103      -0.50816060       0.71591712      -0.97461914       0.00742695      -0.01390398       0.00295520      -5.44279104
Si     -12.07390874      20.95378123       7.65883904      -0.32050296       1.13945651       0.49397160      -0.01687808       0.01262648       0.01713815      -5.93359762
Si       5.23389456      10.47379065       7.45796034      -0.96803793      -0.16072497       0.13693193       0.00967315       0.00547023       0.00149215      -5.34391791
N        6.08443503       4.99537406      -3.59793273       0.38321789      -0.71725657      -0.39439944       0.02348271       0.00455633       0.00004306      -8.42477489
N      -10.52804179       6.69272588       5.79631464      -0.38724450       0.64195800      -0.19105132       0.00542722      -0.01856045       0.00097790      -9.51163268
N        4.72953539      20.55668536      -0.88216522      -0.73333457       0.01550288      -0.00522234      -0.01740478      -0.00185877       0.01382104     -10.07143664
N        4.70668867      20.34295718       1.86054666      -0.52220121       0.64492634      -0.31748787      -0.00315280       0.02624265       0.01070894      -9.14303613
N       10.00905177      -1.44846155       5.98534879      -0.13740454       0.08677503      -0.69219075       0.01642166       0.00808838      -0.01921621      -9.55375934
N       -2.68290865      14.15718089      -6.39412987      -0.27405766      -0.15808257      -0.29973372      -0.01409757       0.00459334      -0.00467575      -9.24263930
Si      -2.24207081      23.20440710       4.44906589      -0.36002213       0.14384519      -0.27544711      -0.01290569      -0.01180965      -0.01050329      -5.14092880
Si      -3.35035432       4.17482742       6.22702538      -0.43184853       0.21032119      -0.19867490      -0.01497230       0.02388446      -0.00017344      -5.40586239
Si       9.46657025      12.91163563       0.80173337      -0.55463326       0.12091534       0.67365209       0.01158212      -0.00687674      -0.03834802      -5.25952536
Si      13.02599959      -0.61547086       8.58494732       0.21479201       0.14983748       0.18980417      -0.00824720      -0.00291634      -0.01541558      -5.32440859
Si       7.02535204       9.03766495      -8.93585189      -1.00352402       0.06816869       0.10053487      -0.01210830       0.00123049       0.00062583      -5.16409928
Si       4.81409261      -3.92382262      -6.77112648       0.71180922      -0.41392095       0.26513835       0.00825550       0.00656050      -0.00118072      -5.62306267
N        9.65407822       0.94640781      -4.01950713       0.13895247       0.03842253      -0.65796936       0.00332821      -0.00626677       0.00854741      -9.64434361
O        4.48208860       2.83027366       3.29659706       0.51149740       0.58508419       0.16790109      -0.00928763       0.00337599      -0.00130382      -9.00162303
N        9.06006743       3.37480530       6.22049593       0.61723367       0.49778557      -0.32591006       0.00387105       0.01476280      -0.01124722      -9.56583667
O        0.22288983      10.09513861      19.76031144      -0.15091223       0.08029370      -0.27915060      -0.00650169       0.00857255      -0.01832131      -8.91454017
N       -0.56376862       7.62974196       7.34824761      -0.67546769       0.76373173       0.57169956      -0.00515293       0.00040892       0.00498885      -9.68561864
N       10.77393027       9.81883584      -1.09877464       0.17122026      -0.58024892       0.51152548       0.00079900       0.01429504       0.02836232      -9.49026513
N       21.57958914       2.31247279      13.07844617       0.51324575       0.85252433       0.42003020       0.00480031       0.01500389      -0.02575978      -9.34521031
Si      -0.64277216      -1.01838773      -6.36242548       0.47848997      -0.13510335       0.24371179      -0.00481053      -0.00343698       0.00579984      -5.56262022
Si       6.19877053      -1.54426805       0.12782421      -0.09077872       0.98305508       0.34779799      -0.01781470       0.00596386      -0.01012921      -5.36547381
Si       9.45212241       9.96373149      -5.64932369       0.24581434      -0.07996297      -0.09614049      -0.01594550       0.00774908      -0.01855528      -5.39725643
Si      10.29883661      -3.19263573      -0.06656590      -0.37139132       0.50417091      -0.50613531       0.00184140      -0.00789744       0.00454551      -5.73496300
Si       8.49246723      12.69140572      14.53600726       1.21547063       0.76162752      -0.02316062       0.01013319      -0.02060742      -0.00024670      -5.17767483
Si       9.93834705      10.19816095      32.30978342      -0.68306490       0.55112291       0.70365863      -0.00707991      -0.01372918       0.00692959      -5.56179863
N        6.97236982      12.05934011       3.52432283       0.41203432       0.20401825      -0.85342009       0.01213697      -0.01538539      -0.00656558      -9.18561959
N       16.54157805       1.37933085      12.11552303       0.64584108      -0.47463867      -0.67773415      -0.00235305      -0.01148310       0.00882562      -9.44623780
N        2.81949509      -3.62781576       7.51715145      -0.60808424       0.51413911       0.92690890       0.01411907      -0.00128722       0.01822215      -9.36210465
O        9.86289757      11.83378315      -2.46924476      -0.28422771       0.41334106       0.71459987       0.02770527      -0.00734189       0.00298718      -8.88636577
N        6.90879834      15.99307401       1.78284222      -0.57444269      -0.74457763      -0.18845964      -0.00053459       0.00314188      -0.00258784      -9.47603345
O       -0.69018118      11.52477326       4.44964203       0.19642603       0.43902861       0.34110404      -0.00468032      -0.01054207      -0.00645323      -8.88492095
N        1.80334468      11.83779219      14.84288751       0.11905415       0.30772908      -0.28738093      -0.00549109       0.00459027      -0.00220466      -9.50046611
Si      11.59378731      14.10724862      -7.97796950       0.69053721       0.10326784       0.33597874      -0.02385873       0.01808766       0.00653305      -4.26946622
Si      20.69119109      14.91732737      -3.83895598      -0.26833187      -1.44093725       0.22826011      -0.00798559       0.00179327      -0.00565317      -5.30078083
Si      -3.28030049       4.16379935       9.18665429      -1.61245421       0.31257419      -0.35910931      -0.00417861      -0.00039187       0.00558069      -5.87589651
Si       9.88302367      17.89140929       8.43236728      -0.09395321      -0.06906426      -0.84014138       0.00100464       0.00012419       0.00235067      -5.79532963
Si      16.26637324       7.01219946      -4.17514899      -0.08979524      -0.35514143       0.73403699       0.00301965       0.03480923      -0.00190589      -5.99715143
Si       8.33337875       7.86827929       0.19269358      -0.46958859      -0.02955980      -0.52989605       0.00505829      -0.01173300       0.01684082      -5.34885556
N       -0.42305850       6.80530003     -12.92352578       0.14870628       0.10536039       0.15069174       0.00311735       0.01728606      -0.02348600      -9.37652516
N        3.64193741       9.56789357      -4.40493485       0.03737329      -0.37660380       0.15756369      -0.01658722       0.00508017       0.01347756      -9.41727376
N       12.36628838       2.49023019      -8.16191564       0.46054953       0.56644460      -0.75725372      -0.00103980      -0.00397566      -0.01224744      -9.45973516
N       13.36467628       9.88030595       6.23637555       0.84468882       0.30604335      -0.02724858      -0.00022421       0.02427799      -0.01851205      -9.44918561
N       -4.25717864      18.42020188       7.23472152       0.49926254       0.53370507      -0.44619714      -0.01547444      -0.01022454      -0.01496364      -9.39992642
N        7.71578815      16.69615244      -6.85262640      -0.57454914       0.25635984      -0.26636194      -0.00105377      -0.00022867       0.00463709      -8.09336305
N       -1.90604810       9.05591073      20.84723153       0.24546086       0.12210272       0.30276303      -0.00441948      -0.01705182      -0.00091930      -9.15807891
O        6.59624907       3.19824353      -7.12788638      -0.32914775       0.30074963       0.71921858       0.01191321       0.00010850      -0.01882454      -9.21539438
Si      -4.47940976      19.09299676      -5.98409373      -0.71265881      -0.06531640       0.45477999      -0.00016787       0.00490601       0.00536276      -5.87267357
Si      -0.08465332      19.27193233      -1.05783922      -0.54359558      -0.15744879       0.33142808       0.00709032      -0.01503235       0.00358537      -4.83941752
Si       1.34957241      14.75167056      -2.53581288      -0.05177166      -0.63305629       0.17550771      -0.00371112      -0.00645442       0.02135909      -5.88904625
Si       3.43266459       8.57390249      -2.96218813       1.07396777      -0.75175614       0.66485660      -0.01269004      -0.00902194      -0.01266894      -5.98756367
Si       7.89934644      15.03217699      -0.84809510       0.26861424       0.03695821      -0.39585581      -0.00357926      -0.00178051       0.01696210      -6.09070545
Si      16.25375275       7.80710987      -7.07736758       1.21059808      -0.30486743      -0.55541922       0.01810499       0.00007488      -0.01342400      -5.98703820
N        6.37423705       8.63463629       4.31754165       0.34250310      -0.27317982       0.49504811       0.01009272       0.02073479      -0.00235887      -9.26609826
N        0.98498004      24.78470841      -5.81231725      -0.40369512      -0.49470026      -0.32839802       0.00949055      -0.00675076       0.01092571      -9.18359399
N        8.40948345      14.32947896      -2.37131902       0.67507316      -0.30822432      -0.01355699      -0.00884910      -0.00831353       0.00255963      -9.39298749
N       -5.72557570      20.91860349      -2.82974112       0.30755821      -0.21611161       0.38508134       0.01982024       0.00021600      -0.00421275      -9.58104730
N       15.94725588       5.36107493       7.91756300      -0.13098603       0.70364828      -0.41143317       0.00178987       0.01600526      -0.01704767      -9.57201076
N        3.71466327       9.53100971      16.00306479       0.09056718       0.24813703       0.34137201      -0.01654337      -0.00022924       0.00135852      -9.53182769
