104
Lattice="15.2088 0.0 0.0 -7.6043999999999965 13.171207161076772 0.0 0.0 0.0 5.8164" Properties=species:S:1:pos:R:3:momenta:R:3:forces:R:3:energies:R:1 energy=-796.3316650390625 stress="-0.04303645342588425 0.009431707672774792 0.006454432383179665 0.009431707672774792 -0.02541586011648178 -0.004486116115003824 0.006454432383179665 -0.004486116115003824 0.010076124221086502" free_energy=-796.3316650390625 pbc="T T T"
Si       0.91484521       5.35994922      -2.40805804      -0.64752726      -0.83313079       0.01037300       0.00881410      -0.00657751      -0.01721673      -5.39168459
Si      -0.52773152     -10.18055552       4.60331484      -1.06006342      -0.49700492      -0.29379114      -0.00198354       0.01239099      -0.00957188      -5.95891434
Si       2.16059815      -2.98153563      10.59328054       0.00243944      -1.06220770      -0.42655392      -0.00472292       0.00761160      -0.00666577      -6.06053311
Si       4.26596021       8.76894738       0.42253326       1.01002011       0.23344613      -0.16674518      -0.00437111      -0.02086294       0.00765591      -5.80463845
Si       4.75412257      -3.23684737     -11.25168136      -0.42987514      -0.43124165      -0.03955692      -0.00983247      -0.01946464       0.00982527      -5.66412646
Si      -0.36234448      -1.73802620      17.34688700       0.80040617      -1.09554429      -0.40955267       0.01715636      -0.01453978       0.01327413      -5.77287632
N        8.84608276      -4.44436264      -2.43724460      -0.33907653      -0.39737696       0.02192405       0.00565946       0.00016876      -0.00108993      -9.69136453
N        9.05800623       0.50725884       0.33399426       0.37369904       0.06135133      -0.11279751       0.01060820      -0.01229224       0.01164627      -9.46213508
O       -3.55884065      13.90422882      -2.41896215      -0.57237148       0.88869863       0.08162014       0.00718077       0.01072951      -0.01169357      -8.94020069
N       -1.81366824       6.55972536       6.20601148      -0.12378666       0.48427334      -0.59819800       0.01536384       0.01187104      -0.00963160      -9.64107633
N       -4.21958076       6.80343094       4.78500983       0.29991462       0.18831392       0.16688422       0.00147361       0.00906545       0.00020614      -9.49128985
O       -8.40684868      -0.55127453       7.53590278       0.26483483       0.34930378      -0.32462370      -0.00105405      -0.00016919       0.01510509      -9.33053768
Si      -5.57012544       2.18031065      11.90979603       0.38701077       0.37289967       0.23885585      -0.00592002       0.00465085       0.00467759      -5.49939877
Si       0.93068682      12.91563095       7.55787202      -0.54912271       0.71016927       0.49862318      -0.00786588      -0.00271404      -0.00097492      -5.45085913
Si      10.35582622       6.12199266       9.15419692       0.72552407       0.90555754       0.55611799      -0.00378406      -0.00713523       0.00778839      -5.70007187
Si       2.36284532      -4.37857686      13.43654171       0.51363819       1.28263588       0.11368174       0.00897327      -0.00169724      -0.00199480      -5.67859656
Si       0.60323048      -0.80957564       7.81902102       0.05258756       0.06647393       0.09457285      -0.01638129      -0.00495669       0.00038397      -5.40459782
Si       0.48109991       1.48606889      11.53158878      -0.19419978      -0.68875567      -0.07299659       0.00801122       0.00375605      -0.00059483      -4.86373192
O       -8.64111993       2.36407552      17.70993943       0.01046968       0.17318884      -0.58392092       0.02698754      -0.00776951      -0.02189213      -8.77273500
N        4.25019892       3.08627358      -1.16930313      -0.56677787      -0.87363758      -0.46881035       0.00560609       0.00677709       0.00357698      -9.59928679
N        4.33166663       0.35852088      12.07919880       0.09155638       0.66902589      -0.08576891      -0.00759411      -0.00503429      -0.00973916      -9.02337670
O      -14.12840146      -7.08206112      23.66367524      -0.24303695      -0.88337492       0.24413578      -0.00268039       0.01382396       0.01191140      -9.48173320
N       -6.54659284       6.14548203       9.12963866       0.50615349      -0.18609009      -0.49011676      -0.00211015       0.00487748       0.01381838      -9.41933942
N        3.59755705       8.13058241      19.33095295      -0.36459266      -0.46650906       0.70304008      -0.00938104       0.01786679       0.00730241      -9.67538333
N        8.96811731       0.48794368       3.20949224      -0.48562467      -0.20768141      -0.59875323      -0.00337031       0.00807276      -0.01012215      -9.43457484
N       -5.28188572     -14.01706233      -3.86526994      -0.20879196      -0.50565824      -0.40574036      -0.00344113       0.01407731      -0.00679684      -9.61478019
Si      -2.67428005      17.88627456      -7.01478328      -0.49461300       0.02790060      -0.62652806       0.01743996      -0.00275978      -0.01034544      -5.73140818
Si      -9.24515211       5.33337680      -4.07761604      -0.18557730      -1.30131447       0.77830034      -0.00098909      -0.00115407      -0.03362201      -5.42137343
Si       0.69624982      10.38717044      -2.47262181      -0.87202771       1.34199094      -0.09058256      -0.01562265      -0.01345092      -0.00437292      -5.37009293
Si      -2.79246483       0.73063702      16.74402829       0.78716819      -0.07378983       0.23774798       0.00212616       0.02702621       0.01440153      -5.27723366
Si       1.84471025      12.85663561       4.67215093      -0.29609027       1.04140384      -0.54738619      -0.02074903       0.00774407       0.00738815      -6.00932127
Si       3.40345577      -0.74709948       3.26455961       0.95505465      -0.17075707      -0.34042403       0.01523862       0.00053295      -0.01170974      -5.96821171
N      -13.87711292      11.19116481       4.77336093      -0.77550415       0.25775718       0.46754409      -0.00488193       0.01032176      -0.00795656      -9.58076119
O       -7.61226717      13.25926208       3.19024495       0.59883805       0.27224224       0.01541403       0.00853813       0.00607413       0.00390903      -9.02618110
N       -4.26824721       2.08804129      -9.77519611      -0.73289205       0.31978236      -0.15765649       0.01215716      -0.01290631       0.00883590      -9.74907184
N       -3.62756439      16.05434084      -4.14397232      -0.52322178       0.35797520      -0.47922002       0.00172740       0.01324260      -0.02473684      -9.60422206
N       -9.39871577      11.97116070      -0.71987426      -0.73854504      -0.72048257       0.16503191       0.01873880      -0.00966316      -0.00611201      -8.75017047
O        1.49273816       3.80827480       3.02931269       0.00660790       0.62485049      -0.28256913      -0.00835469      -0.00534096      -0.00115646      -8.71270692
N       -9.14319258       8.72965355       3.28105694      -0.61927915      -0.50673347       0.54841242       0.01194270      -0.01379527       0.00545839      -9.71281695
N       10.81064324       4.44090157       0.42633567       0.34478523      -0.33291203       0.38688089      -0.00596620      -0.01290265       0.00149017      -9.58870244
Si       4.73856929      13.94350329       7.53111545      -0.37661653      -0.83950074       0.32236659      -0.00671706       0.02224954      -0.01149023      -4.77572066
Si      -8.32637476       9.32477390       1.85202078       1.06497493       0.31594671       0.41412005      -0.00072419      -0.01487297      -0.00824428      -5.93241316
Si      -2.45042338       7.29429449       7.63075531      -0.19943683       1.32101053      -0.56535395      -0.00576848      -0.01609684       0.00751848      -5.68657786
Si      -3.94866797      -1.54521288      13.61672700       1.45125881      -0.34616800       0.43943346       0.00302994      -0.00825942       0.01047453      -4.70311409
Si      -3.01270456       9.68796623      -2.54427788      -0.84365544       0.42441730       0.81076702      -0.01385713      -0.01265369       0.00425866      -5.93573624
Si      -7.38495201       6.70928936       7.70755322      -1.19773511      -1.15375629       0.22974141      -0.01588506      -0.00543066       0.00793296      -5.13473040
N      -11.56318154       8.14569696      10.56475142      -0.18995641      -0.22690133      -0.25045472      -0.01237924       0.01131955       0.00848895      -9.63665032
N       -6.89213079       8.36272014       1.72521672       0.21507513      -0.39902009      -0.04318573      -0.00020330       0.00123203       0.00223097      -9.65580153
N      -11.18753928      10.51106970       9.08396126       0.29773117       0.08118694      -0.09428622      -0.00334423      -0.01123827      -0.02467848      -9.65606999
O       -6.55570796       2.81045780      -4.06190268      -0.05104580       0.13261872      -0.22144817       0.00398280       0.00427306      -0.00767560      -9.02822006
N        4.60575316       5.25251852       2.96176671       0.25983711       0.11604364       0.22506240       0.00607318       0.00346369      -0.00410473      -9.05387425
N       -9.69099777      17.36871105      -3.93299698       0.47614936       0.09628997      -0.11349506       0.01156200       0.01024653       0.00694637      -9.56506515
N        1.28470724       6.37989725      13.64549918      -0.59026232       0.38123140       0.36111575      -0.00013543      -0.00470072       0.01688461      -9.65678334
Si       9.65030799       2.13046734      14.90680554       0.23728287      -0.97013848       0.34834368       0.00013448      -0.01203729       0.01720560      -5.47631174
Si       3.87498707      -9.40899865       1.87306768       0.29024226      -0.01435943      -0.01756214       0.01974198      -0.00569184      -0.00102639      -5.69690853
Si      19.02546619       2.02987690       5.98650953      -0.18250485       0.91534378      -0.54573541      -0.00936453      -0.01013539      -0.00958540      -5.90623719
Si      14.60648518      -4.55951132       4.79336805       1.36652963      -0.53298108      -0.13743613      -0.00411300      -0.01257886       0.01770001      -5.60579830
Si      15.61228756       2.93108282       7.77931801       0.54561082       0.06351265       0.50747345      -0.00011627       0.00601201       0.01545657      -4.42918640
Si       4.59312892       2.23936710       8.97794285       1.78228465      -0.35857759       0.16277241       0.00945571       0.01531089      -0.02106436      -5.94821173
N        6.70028016       4.70466293      -1.20417921       0.13691427      -0.15671046      -0.13994946       0.01499449      -0.00168213      -0.01800586      -9.33623338
N        5.65248935      -6.55478740      -2.52066361      -0.26811089       0.36146865       0.02834302       0.00744736       0.00010091       0.00876841      -9.63052773
O       -1.14901112     -13.69717857      -6.88399151      -0.62286347      -0.21914608      -0.21862125      -0.00394258      -0.00632118       0.00001489      -8.76156747
N       11.25158820      -2.68503514       6.23164049      -0.58987304       0.39313082      -0.23009578      -0.00068775      -0.03200771       0.01435532     -10.28450990
N       17.42809963       1.46674221      11.50530047      -0.70383476       0.38651065       0.34289826       0.00503868      -0.01300555       0.00668320      -9.25467896
N       18.44577250      -8.70050492       9.11597138       0.20343426       0.40746835       0.00819646       0.00705913      -0.00129633      -0.00409283      -9.58275247
N        8.95058610      -4.44853736      12.05746088       0.39687921      -0.09780800      -0.39240622      -0.02376866       0.00079669       0.02168619      -9.63938022
Si      13.84217509       4.82155561      -5.38869684      -0.32267478       1.02380450      -1.30816556       0.00183773      -0.00762664      -0.01046112      -5.74473006
Si      11.93766287      -4.36523239       9.10882409       0.69273774      -0.22763413       0.16053714       0.01386800      -0.00475308       0.00589239      -5.99750191
Si      10.38499311       6.08912266      12.01079532      -0.05872676       0.01569855      -0.02600816       0.00000907       0.00327580      -0.00509527      -5.32973772
Si      -3.27048697      -1.85271296       4.76002814       0.52505068      -0.38248515       1.21213154       0.00483203       0.01742698      -0.02366959      -5.80929190
Si       6.40523252      -1.35132614       9.12411363       1.12546661      -0.56762320       0.43785671      -0.00671075      -0.00117856      -0.01357040      -5.01175457
Si       5.08774579      -5.87147252       4.77629705       0.88462785       0.82928208      -0.03789823       0.00727528       0.00758447      -0.00150030      -5.90371281
N        2.85799090      -3.73149825       3.32261345       0.48377396      -0.73088602       0.27162753      -0.00847692      -0.00714868       0.01146929      -9.55619073
N       -1.25078582     -10.84605126       3.13561235      -0.49780324      -0.22532166      -0.34278959       0.00882670      -0.00525218       0.01014592      -9.30492663
N        4.79199924      -1.79588857       8.84868713       0.16243046       0.40923220       0.49745396      -0.00577539       0.00204927      -0.00461275      -9.57554030
N       -1.63764566      -4.32938003       6.23338586      -0.17680442      -1.22721897       0.92689920      -0.00814566       0.00138053      -0.00470209      -9.65711999
N       12.88532624       9.03011872      -1.07805154      -0.65422470      -0.85993102      -0.26098621      -0.00091660      -0.01115493      -0.00600155      -9.60368419
N       11.13410002      -0.38132157      10.43430883      -0.06341510      -0.39938841       0.09174204      -0.00440037       0.02516800       0.01266816      -9.28805184
N        2.98266781      -3.57499737      17.86002091       0.03284642       0.69014738       0.01694215      -0.02457413      -0.00940333      -0.01490992      -9.50293756
Si      10.20260605      12.97193324      11.93015055       0.12419050      -1.16939494      -0.74910490      -0.00264435      -0.00717509      -0.00046745      -6.03380781
Si       1.60559739       5.33126543       6.44112068       0.42924300      -0.00258070       0.65678082      -0.00431431       0.00814340       0.00650194      -5.53308016
Si       6.56187432      14.58875367     -14.00459633      -1.16700895       0.46108210       0.49531836      -0.01278371      -0.00909334       0.01322871      -4.74925047
Si      11.50404713       3.79633997      10.57909346       0.08469484       0.75662245      -0.75558126      -0.01193906      -0.00950846      -0.00368613      -5.82299858
Si       1.89863070       7.88252844      10.60132270      -1.09433013       1.06517446       0.34724663       0.01422241       0.00846252      -0.00644024      -5.91800553
Si      17.05112004      10.36832125       0.34948854       0.66037495       0.52545021      -0.54337287      -0.01118389       0.01067548       0.01737404      -5.60032135
N        4.74935637       5.34316904      -5.39939033      -0.11330976       0.12716566      -0.20126715      -0.00555764       0.01480013      -0.03301591      -9.16930318
N        2.68434068      -1.31693970       4.73210074      -0.51545280       0.10510285       0.00627546      -0.00624462      -0.00319421      -0.00966136      -9.50909638
N        8.04210514      10.08187308      10.66486034      -0.91231722       0.54243126       0.05037224      -0.00809546       0.00974521      -0.00101623      -9.56326365
N        1.54900524      11.24696689      13.49983808       0.04034976       0.47995378      -0.97415666      -0.01425935       0.02207817       0.01677483      -9.91460538
N        3.45123055      15.29387852      -1.02337943       0.32718049      -0.06065355      -0.12581126       0.01872914      -0.00571573       0.00628093      -9.40249228
N        8.11694091      12.89828747      -5.49153718       0.22509425       0.29116854      -0.22663271       0.00468463      -0.00124443      -0.00237669      -9.63840938
N        8.76899135       2.83086670      10.46136556       0.13611641      -0.29377023      -0.15183747       0.00306803       0.01277096       0.02358600      -9.03900599
Si       9.44990891      21.14096417       1.93262506       0.20038575      -0.21058357      -0.69496758       0.00161820      -0.01176828       0.00093369      -5.93312556
Si      -2.08069351      12.34551488      11.93364649      -0.83750004      -0.29395269       0.28379335       0.00537920       0.01687086      -0.01070204      -5.04859310
Si       6.22707278      18.10646381       3.33957029       0.31626757      -0.19624516       0.02250423       0.00002521      -0.00334710       0.01083323      -5.71699530
Si       7.57473833       6.18823043      -1.12413742       0.57775065       0.15204528       0.48556457      -0.00799799      -0.00014567      -0.00665721      -5.06935412
Si       3.62784825       4.60637787       1.57715621       0.23012703       0.02646996       0.79614736       0.02828252       0.01010653      -0.01408905      -5.59297997
Si       6.92805326       3.14164328       7.52034400       0.34878593       0.18688202      -0.22194777      -0.00330069      -0.00789046      -0.00665626      -5.30068117
N       -4.37438223       7.03123755       1.82460548      -0.45206869      -0.29062015      -0.16200985      -0.00711933       0.02226374       0.01148663     -10.09189296
N        1.51081071       6.18292763      -0.94761418      -0.04000163      -0.31747439       0.41188425      -0.00699883       0.00555526      -0.00463790      -9.75671506
N       13.18150919       4.16793239      -6.85408411       0.51238072       0.21366336       0.69747342      -0.01456321       0.00790220      -0.00319187      -9.69577432
N        0.23506968       4.27874110      18.15970838      -0.38707324      -0.04047167       0.07342763      -0.00540704      -0.00546664       0.01711318      -9.44294953
N       12.86909762       8.99834028      13.45167731      -0.15630553      -0.27526197       0.14115320       0.02092528      -0.00370196       0.01149803      -9.62600827
N        7.28712009      10.95020020       7.44584658      -0.28728397       0.39396793      -0.25805906      -0.00237513      -0.01398456       0.01403654      -9.57459521
