104
Lattice="15.2088 0.0 0.0 -7.6043999999999965 13.171207161076772 0.0 0.0 0.0 5.8164" Properties=species:S:1:pos:R:3:momenta:R:3:forces:R:3:energies:R:1 energy=-788.070068359375 stress="-0.029724329710006714 0.0010711487848311663 -0.0018622362986207008 0.0010711487848311663 -0.005949095822870731 0.0033144329208880663 -0.0018622362986207008 0.0033144329208880663 0.017386414110660553" free_energy=-788.070068359375 pbc="T T T"
Si       9.74226627       5.06468397       2.39210647      -1.38936738       1.01633102       0.76408543      -0.00987691      -0.00381088      -0.01772534      -4.89732510
Si       5.70145096      -3.46179823       2.28159053      -0.60668747       0.05505407       0.57649730       0.00003047       0.00175764       0.00590190      -5.62887865
Si       1.81851616       7.73962841       0.42024072       1.01858864      -0.26636213      -0.37363427       0.00046068      -0.00584107      -0.00927395      -6.02423531
Si       2.15036523       2.91871081      -1.32981793      -0.43699024      -0.49321551      -0.06770785       0.01045499       0.00555149      -0.00779480      -5.34925848
Si       4.28297887       2.88005282       0.72588119      -0.44427905      -0.66950130       0.11213959      -0.00705224       0.00012079       0.01114210      -5.74013764
Si      -1.66249210      -7.32919358      -6.28174462       0.16058622      -0.73507415      -0.02417147      -0.00313723       0.01418511       0.00269514      -5.46956974
N        2.24039883       8.57255163       1.89416739      -0.48264164       0.38653951       1.09752697       0.00533037       0.00379384       0.00308022      -9.40863776
N        0.10606979       7.77176846       0.10498065       0.28788612      -0.23879534       0.00527660       0.00807052       0.00256594      -0.00167838      -9.40194964
N       -8.52100485      10.50951493      -5.82276793      -0.38085197      -0.08913320      -0.64205303      -0.00928996      -0.00453974      -0.02029468      -9.87539697
N        2.40041804       8.40061463     -12.72584378       0.12962641       0.03739591      -0.47782368       0.00316011      -0.01349795       0.00164779      -9.51914287
N       10.46306549       8.14083934       3.21372494       0.28890241       0.37256093       0.69213828      -0.00486246      -0.01025910      -0.00639557      -9.30002427
N       -3.12765492       3.06674557       7.83108963       0.27404076       0.05845699       0.11723248      -0.00240110       0.00042483      -0.00724828      -9.42659736
Si       0.18206390       5.02220741       3.49311366       0.48933047       0.14173312      -0.37621765       0.00483954       0.02102381       0.00219560      -5.96416193
Si      -1.73840617      -4.93180077      -8.76148873      -0.50752931      -0.33181445       0.19381511      -0.00243227      -0.01092970       0.00536916      -4.95832306
Si      -3.99054942      18.66489862      -0.69445063       0.28221052       0.17435529      -0.02257399      -0.02228051      -0.00223085      -0.00868967      -5.21097904
Si      10.56761846       8.98849132       4.79120369       0.72911973      -0.29306840       0.08226560       0.01470490      -0.02045473       0.00263038      -5.70264775
Si       7.99799861      -1.44493688       1.10657834       0.64866722       0.64851520       0.28722291       0.00603217      -0.01528603       0.00210485      -5.27791744
Si       1.74388031      11.55509297       9.81990128      -0.16240501       0.15738254      -1.39519820      -0.00329542       0.01098472       0.00740355      -5.24579960
O       -0.52422634       2.62419954      -4.83719830       0.27304523      -0.08164617       0.91090590      -0.02144026       0.00560503      -0.00819522      -8.83399332
N       11.58978048      10.33133199      -0.45993662       0.30403935      -0.43536162      -0.33697313       0.02439047       0.01984032       0.00452581      -9.23719382
O        2.86228844       6.01654730       3.44646021      -0.37450042      -0.43667847       1.06726371       0.03796970      -0.01175775       0.01336372      -9.32927597
N        8.54239798      13.90852480      -9.29372774       0.21463649       0.19509795       0.08165106       0.00853255      -0.00253947      -0.01702493      -9.56007409
N        1.13758893       4.47903784      13.69812855       0.11371530      -0.12669278       0.41695245      -0.01118898       0.00218446      -0.00003570      -9.35338235
O      -10.19092723     -17.37174979      10.08430798      -0.03125417       0.57511264       0.64945697       0.01085946      -0.01085958      -0.02151355      -9.30770671
N       -5.22947370      -0.12705958      -1.09217565      -0.31030587      -0.27715874      -0.13566280      -0.00391281      -0.01168343      -0.00095259      -9.48337197
N        6.59543266      -3.60944451       9.59426186       0.42302377      -0.00300791       0.19014353       0.00286201      -0.01025705      -0.00250579      -9.61459565
Si      -5.62147344       6.39626388       5.62355803      -0.34435864      -0.34853549      -0.53290125      -0.01857808      -0.00517279       0.02179341      -5.03513151
Si       1.96884488       7.55795992      -2.53827291       0.03391988       0.42970161       1.20666072      -0.00804280       0.01666811      -0.00330755      -5.54646164
Si       2.98940953      10.26648479      13.52193123       0.35272858      -0.22459699      -0.78759881      -0.01551902      -0.01346931      -0.00673521      -5.19889456
Si       3.86473539      12.48076622      -0.42005599       0.24753856      -0.48569383       0.48296889      -0.00470271      -0.01104447      -0.00068565      -5.75026661
Si      -1.07947140      10.82609502      -0.80587303       1.86962837      -0.93586380       0.84241369       0.01012869      -0.00468428      -0.02852893      -5.25431973
Si       8.63498800      11.06594492      -5.88112476      -0.42881451       0.84834363      -0.60435076       0.00703093       0.01432300      -0.01040670      -5.58659035
N       -3.43667043      26.70778670      -4.89066835       0.98017787       0.12978207      -0.15360581      -0.02252820       0.00753886      -0.00349291      -9.84910846
N        6.87405187      10.51888406       2.98300575       0.13616887       0.42833827      -0.29944318       0.01315378       0.01790035       0.01019961      -9.60490823
N       -9.12834664      17.82601703       3.56415783       0.08153034      -0.03021061       0.37007659       0.01261091      -0.01761238       0.00212741      -9.41569114
O      -16.22852990      10.61133349       6.90879974       0.12901772       0.36051389      -0.57922513      -0.01947527      -0.00979556      -0.01213036      -9.51343286
O       -2.33834267      19.89096825      -2.88767067       0.42544418       0.29753736      -0.49907028      -0.00391664       0.00969705       0.00759985      -8.76621854
N       -1.95947974      12.27408969      -1.16912444      -0.83367844       0.06229216      -0.05678939      -0.01027174      -0.01458272      -0.00951126      -9.53658605
N       -6.75528417      17.37261845      -6.75158624      -0.89083057      -0.04475082      -0.15701217      -0.01178831      -0.00182757      -0.01197946      -9.22295165
Si      -8.22946382      14.57185694      19.56833059      -0.22036671      -0.39725982      -0.23077921       0.00033006      -0.00571623      -0.00172287      -5.39094168
Si       3.33667479      17.58946604      -0.75205309      -1.01207879       0.22301732       0.35792160      -0.02235550      -0.03902265       0.01033151      -5.13615566
Si      -8.70052686      11.56055009      -1.48823549      -0.69924419       0.18414009       0.01324953       0.01027082       0.00483313       0.02256788      -5.63321692
Si       4.70197802      17.78998948       7.00261280      -1.36942687       0.38674306      -0.54762817      -0.00760287      -0.00544223       0.01200789      -5.29808861
Si      11.70049534      11.66185650       9.89035671       0.31144306      -0.67161378       0.37478412       0.00652409      -0.00182766      -0.00454057      -5.83357579
Si      15.29395804       4.13230464       0.66268852       0.47300455      -0.08734361       0.34406630       0.01979741      -0.00375208      -0.00990459      -5.92641312
N       -4.50703224      12.97808895       3.60644064      -0.48124194      -0.10802553      -0.18609581      -0.00542285      -0.02272564      -0.00110862      -9.39837146
N       -3.25483287       2.84309117      10.82774131       0.24830317       0.32636039      -0.09761682      -0.00511989       0.02485502       0.00939265      -9.24805808
N        0.05091386      13.39238740      18.55101160      -0.17340797      -0.55941741      -0.20903567       0.00365993      -0.01943237      -0.00467139      -9.43473458
N        2.08598665      15.27719000       0.59405705      -0.38199902       0.00911086      -0.07733793      -0.01760450       0.00999196      -0.00207493      -9.56614947
N       -3.67185248       5.84921859      13.91133695      -0.27062854       0.73308769       0.25493635      -0.01039974      -0.00873610      -0.01615104     -10.03286242
N       -4.02639419      -2.39389099       5.99543820       0.17462718      -0.10435504       0.60867392       0.00947583       0.01801679      -0.01341723      -9.20618749
Si       5.78560550       5.16028690       2.52027682      -1.75388306       1.04276886      -1.15321767      -0.01898637       0.01318887       0.00974098      -5.55955893
Si      13.40747357      -2.38517914       7.42467020      -0.15008010       1.15966157       0.19634090       0.00346759      -0.00083432       0.01923674      -5.31862837
Si       9.04140371      13.43886261     -13.48031546      -0.12315226       0.58631399      -0.40020232       0.01202563       0.00838982       0.00382566      -5.94220263
Si      14.60900587       7.91300041      -1.52589530      -0.33880683       0.74276209       0.14221596      -0.00775712      -0.01459096       0.01307029      -5.85910040
Si      13.52887601      -4.25523217     -17.53675392      -0.47413115       1.03491400      -0.71931151      -0.00724895      -0.00478539       0.01013054      -5.11562353
Si      21.29911621       0.85612877      -7.01078811       0.13430045       0.19500900      -0.23171501       0.00937612      -0.00436430      -0.00349147      -5.83113819
N        6.73416153       5.43206183       1.11628605      -0.40146475      -0.14084007       0.06175913      -0.01017112      -0.00151937       0.01110357      -9.34105754
N        5.25196672       9.05544851       1.49262287      -0.00415472       0.83235046       0.18953807       0.00701845       0.02461915       0.02175210      -9.26122117
N       10.60257125       7.79809375     -17.17921291       0.14483615      -0.77172161      -0.60683588       0.01128191      -0.01619586       0.01591468      -9.37029195
N       19.52221668      -2.44014433       2.51801895       0.61251261       0.02032991       0.40301650      -0.01342939      -0.00307918       0.01398295      -9.57981753
N       18.64602256       3.77425418      -0.46696035       0.16861125      -0.42857416       0.10685541       0.01098572      -0.00749707      -0.01203698      -9.49677157
N       17.89327499       6.21110333      -5.22606983       0.17395695      -0.48599799      -0.00765416      -0.01395363       0.01408038       0.00196415      -9.45808578
Si       8.11067081       4.05719332      -1.18155482       0.11806590      -1.06643369      -1.22920579      -0.01303373      -0.00764941       0.01823030      -4.40325505
Si      10.90799928      -3.28996068      -1.32646011       1.85849865       0.49085854      -0.28765323      -0.00661331      -0.01037252       0.00033689      -5.02349049
Si      14.16372442      14.64947614      -4.14099277      -0.26217235       0.08623960       1.77377345      -0.00104775       0.00449732      -0.00151861      -5.76886088
Si      17.22197638       0.73013621      12.55310303       0.48012779       0.76808550      -0.31767912      -0.00597220      -0.01615288       0.02173986      -5.97671610
Si      18.93734479      -5.57966729       1.82205407       0.49347548      -0.17419229      -1.00229825       0.00548548      -0.00259784       0.00195809      -5.56648022
Si       3.70764744       1.44977357       3.11797299      -0.50804500       0.00408753      -1.03496253       0.00303569      -0.00844687       0.00013906      -5.53764206
N        2.41643488      -0.88815960      -5.32917643       0.20178646      -0.46864588       0.49613354       0.00600293       0.00782059       0.01409080      -9.13534570
N       23.16617778      12.34267659      -6.91760145      -0.21878549      -0.74244121       0.38119954      -0.00378017       0.02914914       0.01041880      -9.44004941
N       -2.58017953      -0.78521613       4.05439043       0.08002224      -0.39308239      -0.12856257       0.00946792       0.00426009       0.01125835      -9.22365642
N       14.30492645      -5.71831296      -0.29556215       0.04513225      -0.37957074      -0.64515328       0.00073519       0.00816312       0.00231750      -9.28889537
N       15.58799828       6.84758794       9.13415983       0.15391442      -0.30123261       0.31812456      -0.02952462      -0.01480389       0.00473018      -9.40902638
N       16.76045163       1.46927625      11.05409370      -0.07129108       0.39692980       0.15264430       0.01200765       0.01117176       0.01338559      -9.27110553
N       12.99840462       8.09566475       1.69121473      -0.06531586      -0.44196652      -0.22260652      -0.00609262       0.00736517      -0.01449272      -9.57372403
N       11.96831532      -8.92810777       1.98664712      -0.35174722       0.21057928       0.11441253       0.00005510       0.00870579      -0.00541757      -9.32140326
Si      10.37437317      18.25643233       7.75423618       1.17249784       0.04750160      -0.32822403      -0.01169701      -0.01029095      -0.02489817      -5.44362313
Si      16.26900482      16.66803324       1.00879189       0.23018056      -0.15212439       0.49804956       0.00128539      -0.00386682      -0.00560662      -5.26414639
Si       9.03643211       7.00951075       3.42201443       0.62445150       0.14835988      -0.78730128       0.00669584       0.01257217      -0.00474072      -5.05666357
Si      12.92048349       3.06777948      -2.21230410      -0.23758380       0.22253123       0.24459019       0.00217422       0.00565478      -0.00374576      -5.66028506
Si      22.96411805       6.86718783     -16.40665619       0.41011132      -0.96640843       0.85517707       0.00661570      -0.00296623       0.00382584      -4.98394972
Si       8.84010603       0.82898016      -0.17772709      -1.27055059      -0.64968734       1.15740361       0.00796306       0.01373318      -0.01130755      -5.62102276
N       15.26339821      21.17038147      -9.03612666       0.11260179      -0.28867534       0.92967442       0.00124083      -0.02875935       0.03160123      -9.86945033
N       20.84823396       1.87246880       0.21309887       0.21390767      -0.52435870       0.83536381       0.00459628      -0.00666904      -0.00391529      -9.53970361
N       -0.92775112      18.04214543      -1.79084929      -0.06003341       0.34104057      -0.60857793      -0.00799102       0.00114736      -0.01286021      -9.50340438
N        9.07184999       9.85450658      -1.33126090      -0.36323334       0.38232876       0.17791769       0.02331318       0.02800608      -0.00884496      -9.41180730
O       14.20739379      28.40788925      -2.22369788       0.60951244      -0.15305793       0.47747602      -0.01015543       0.00615136      -0.01399320      -8.89960659
N        5.53367618      20.31613080      10.56993147       0.28110882      -0.11087577      -0.13563113       0.01187103      -0.00662720      -0.01244550      -9.26474357
O        0.11434734      14.30304315       4.44939534       0.36118408       0.55008608       0.08975664       0.00611275       0.00286925       0.02293287      -8.94579828
N       10.89124450      14.89324925       1.47104912       0.28964901      -0.73047761      -0.09799074      -0.00246719      -0.00481459      -0.01820806      -9.60284686
Si       3.82448324      15.23014287      -5.12372255       0.06079908       0.45611720      -0.90923290       0.00225319       0.00107440      -0.01485981      -5.77656847
Si      -1.35710453       6.99151488       0.56906728       0.77823094       0.06107130       0.02905072      -0.00238273       0.00639293      -0.00171216      -5.72915226
Si       4.82086133      18.95402151     -13.48772362      -0.39019885      -0.01131331      -0.42905520       0.00687891      -0.00352911      -0.02436092      -5.33058888
Si      18.43051876      -2.23874640      18.60184206      -0.63323674       0.15759000       0.00223140       0.00294632       0.00166553       0.00405270      -5.65453202
Si      12.87929432      -0.23726206       2.16814295       0.08542255       1.16769592      -1.11769475      -0.00376554       0.00392476      -0.00888520      -4.98615891
Si       8.41534566       9.72307654       8.67672755       0.43763552      -0.22545242      -0.46233037       0.00907159      -0.00301331      -0.00005455      -5.72917753
N       13.08714211      14.50775957      -8.57097729       0.10732867      -0.51311609      -0.13300675       0.01269558       0.02386828       0.01024825      -9.53776097
N        0.56443070      11.23472946      11.07142934       0.10104999       0.03618119      -0.67300116       0.00082225       0.01148151       0.01414186      -9.34267974
O       -7.73505426       2.81654757      -3.83215914      -0.53742799      -0.24350238       0.07733357       0.00535757       0.00525812       0.00522942      -8.89060962
N        1.62366960      23.35516186      -4.38776932       0.20607889      -0.42922004      -0.18652824       0.00279678      -0.00666070      -0.01206142      -9.22911763
N       13.91982324       5.26692600      12.47448508      -0.29826499       0.12262408       0.48483342      -0.00743608       0.00787768      -0.01388898      -9.40589023
N       16.73631449      11.30899148      19.72729391      -0.34493983       0.11734699      -0.14777969       0.00619030       0.01881325      -0.00175001      -9.63054490
N        9.64567041       4.05419099      -7.79569211      -0.75655234      -0.35073007       0.57872181       0.02549633       0.00511411       0.03535603      -9.18114591
