244
Lattice="22.813200000000002 0.0 0.0 -11.406599999999994 19.75681074161516 0.0 0.0 0.0 5.8164" Properties=species:S:1:pos:R:3:momenta:R:3:forces:R:3:energies:R:1 energy=-1899.77880859375 stress="-0.01232937816530466 0.0023518861271440983 0.004624075721949339 0.0023518861271440983 -0.04245786741375923 0.006264207884669304 0.004624075721949339 0.006264207884669304 0.024400582537055016" free_energy=-1899.77880859375 pbc="T T T"
Si       0.07844223       2.57067098      -4.01962052      -2.48779160       1.01209922      -0.01786949       0.00515900       0.00467956       0.00110045      -5.45654303
Si      -4.13306074       4.66823125       0.47244736      -0.59094037       1.17496394       1.33522932      -0.01991371       0.00781277      -0.01061942      -6.13675696
Si      -3.65277481       2.29339399      -1.12226405       0.62766139       0.58681349      -2.91986422      -0.01057312       0.01748314       0.00510001      -5.85090405
Si       4.51349134      -0.57693968       7.82772223       0.32302093       0.32167724      -1.09138682      -0.01045258       0.02141896       0.00409115      -5.22703320
Si       1.97695009       6.46356546      -2.70413345      -0.17082475       1.26716719      -1.05427865       0.00860757       0.00344954      -0.01165690      -5.92702252
Si       1.68953962       0.38595949       3.26181002      -0.94316625      -2.78621252       1.47838647      -0.00471702      -0.00410721       0.01115610      -5.56316334
N       -4.79866943      -3.37780881       8.03558294       0.52122628       0.72524606       0.49921582       0.00309876       0.02726424       0.00392258      -9.09152436
N       -1.56405129      10.17235336       0.86463821      -0.70353090      -0.05606593      -0.54866785      -0.00171640       0.00438705       0.00172403      -9.27060246
N       -5.10619707      -3.48207509      -1.02604091       1.41027338       1.04598882       0.70785874      -0.03392811       0.03249510       0.01283467      -9.22791457
N        1.17159840       5.78780483      -4.08303217       0.09089270      -0.04261249      -0.49881222      -0.01432917      -0.01317427       0.02300455      -9.53885961
N        0.87177946       1.84902847       6.22956088       0.02984394      -0.62198647       0.43713090      -0.00120980      -0.00406693       0.01259439      -9.54245257
N       -2.98476020      -1.69697754       4.67770905      -0.49157090       0.14885527      -0.39402817      -0.02460134       0.00643931       0.00086769      -9.23250699
N        1.38070333      -0.47789870       7.63931524      -0.30224942       0.09607026      -0.37483932      -0.00727142       0.01916367      -0.01132105      -9.64987063
Si       1.62983896      -4.09018224       7.84136507       0.45175438      -0.74044671       0.23395709      -0.00480625       0.01149797      -0.00755705      -5.68230540
Si      -0.55798958      -4.16564370       0.50727772       1.86225778       2.12726520      -0.86935660       0.01027256      -0.00239345      -0.02225158      -5.50671440
Si       3.90489799       2.30823879      11.97571250      -0.42962507       0.65054020       0.28149763      -0.00268517       0.00273883       0.00690380      -6.12222153
Si       6.17821420      -1.84495170       9.50510784      -0.55596565       1.00115249       0.03471267      -0.00102510      -0.01013027       0.00318080      -5.47605520
Si       8.69589944       3.05216651      -1.20817707      -1.69055037       0.20736373      -0.23683376      -0.00442487      -0.00172178       0.01703475      -6.03389221
Si       1.78989975       5.21013452       0.14485682      -1.30088521       1.33045875       1.75011182       0.00550641       0.00806975      -0.03698410      -5.59904820
N       -5.80880704       4.25172919       6.43837033      -0.66871487       0.87667834      -0.31783893      -0.01008040      -0.00065978      -0.00814132      -9.64436030
N        3.67427880       0.44444239       6.27266298      -1.86444583       0.65875128      -0.53659163      -0.01680674      -0.01149943      -0.02481850      -9.65773749
N       -3.30604270       3.14771038      11.98711227       1.11232028       0.16560945       1.52926473       0.01355830       0.01876875       0.00280931      -9.69518495
N       -0.78791728      -0.76982797       3.29283425      -0.52835603       0.36879646       0.77480697       0.00084579      -0.01893517      -0.02143911      -9.74480700
N       -3.79035116       5.46315444      10.56457189       0.47374916      -0.43932166      -0.13290840       0.00923079       0.01511717      -0.00128959      -9.58417010
N        7.83336583       1.49427590       4.47602781       0.08297562       1.43997771       0.52647510       0.00170008       0.00787294       0.00778437      -9.32415366
N        3.16956946       2.97544421      13.33078720       1.16067550       0.46081334       0.99575084      -0.00807500      -0.01149806      -0.00014028      -8.09848237
N        5.33602978      -7.68653902       9.24397324      -0.78482898      -1.09160967      -0.01275534       0.00683683       0.02077587       0.00932088      -9.65493751
Si      -2.48482013       6.82028743      -4.53577780      -1.54031552      -0.91599284      -0.83764433      -0.00703126      -0.00313114       0.01600485      -5.36133295
Si      -3.27878705      10.07075196       0.84485734      -1.35552663       0.40501250       1.36954341      -0.00024682      -0.02814091       0.01442328      -6.01776463
Si     -12.58115734      11.68068654       6.05015847       0.16575980      -3.10780319      -1.19727562       0.00580470       0.00393135       0.01388439      -5.94816071
Si       1.33202341       2.96766433      -0.87474046       1.03838145      -1.34003376       0.19248495      -0.01710260      -0.00418448       0.00783527      -5.21190268
Si      -0.79639054       8.66486019      -4.94097265       0.52286079       1.74303517      -0.48384034      -0.00361848       0.00142729      -0.00736912      -5.65105587
Si      -5.26202097       7.80646649       1.53458205      -2.07321718      -0.86110165       0.19740726      -0.00342730      -0.00503852       0.00461966      -6.10429960
O        0.66153995       9.19265194     -10.35146921      -0.20895411       1.03118199       1.22180867       0.00738638      -0.01085839      -0.01246288      -9.03820312
N        5.56371149       2.57006003       0.08264450      -1.16761747       0.15835175      -0.87834058      -0.00232643      -0.01425189      -0.01196286      -9.27616811
N       -3.82802582      10.88680802      -0.67130585       0.53534556      -0.74002314      -0.62340925       0.01577808      -0.00489004       0.01382384      -9.59468484
N        3.05045519       2.69780378      -1.14334655      -0.36653190       0.08126572       0.42429557      -0.00274758       0.02318054      -0.00768717      -9.43258405
N       -1.45110019      10.15733295      -1.97549850      -0.31897042      -0.58020629       1.48282167      -0.00743744      -0.00529619      -0.01254019      -9.29960370
N        3.50710864       5.53251712       0.13217798       1.28977698       0.99503523       0.70623593       0.00732780      -0.00802284       0.00456501      -9.62973094
N       -3.54001021       5.57144731       7.67320897       0.09349391      -0.75419405      -1.62704693       0.00990181       0.00621733      -0.01778533      -9.46339011
N        3.52967816       0.64745064       3.14977544       1.16452519       0.13065871      -0.36325201      -0.00732854       0.00005280      -0.01762468      -9.80819917
Si      -7.79024616      12.23472126       6.22381494      -0.10367426      -1.56367481       1.86405718       0.00562544       0.02072287      -0.00796993      -6.05186087
Si      -7.22412852       9.33870693       3.20595662      -2.65542813       0.86464602       0.90620635      -0.00373393       0.00078668       0.01814302      -6.07176834
Si       2.24968575       9.10860600       1.49677367       1.47053127      -2.47580639      -0.07213467       0.01056895      -0.01367453      -0.01648065      -5.63519341
Si       7.42809507       0.74901163      -2.92188027       0.13492312      -1.30720767      -1.21226320      -0.01071632      -0.01107363       0.00710300      -5.96104532
Si       4.53116882       8.30783228       0.01773692      -0.71602244       0.57603468       0.87484763      -0.00091208       0.00972849      -0.00502782      -5.86247450
Si      -0.61840209       6.10258455       4.85483114       0.92000790       1.30220674       1.36226013       0.00580690      -0.01403169       0.00416704      -5.90325981
N       -3.80810256      11.02002222       2.22451110      -0.39705312      -1.38214004       0.07703576       0.03199193      -0.01141115       0.01474072      -9.54898286
N        4.98355208       7.47816580       4.42812456       0.84258073      -0.00543159       0.01455866      -0.00779543      -0.00640568       0.00574037      -9.48633313
N       -1.36277065       7.74578225       8.07059255      -0.47051347       1.72906472       0.19866116       0.00388252      -0.02068440      -0.01158717      -9.28798413
N        5.48063465       9.66155378       8.65083144      -0.87757624       0.59467491       0.40869800       0.01072256      -0.00497782      -0.01168412      -9.38924527
N       -8.46117015      12.94739164      -9.78669363       1.58699557      -0.05949150       0.94869822      -0.00706562      -0.00054210      -0.01150476      -9.46448112
N        1.11424574       6.12422907       4.59566798      -0.25870183       0.26694416       0.63972118       0.01758356      -0.00830993      -0.02193907      -9.55328536
N       -1.26430084       5.59623495       0.56750673      -1.42362913       0.43632887       0.98491504      -0.01474005      -0.00091065       0.00134869      -9.12681174
N        5.85881150       4.91697531       4.57117882       0.03697309      -0.25557998      -0.17242488      -0.00827090       0.01190349       0.01392030      -9.47633290
Si     -12.61315053      17.99246483      10.48678387      -1.05920671      -1.50609584       1.78603506      -0.03273679       0.00459111      -0.00392148      -5.86488444
Si      -2.51101349      16.98325672      -1.00311644       0.25372459       0.62768200       0.38903962       0.00141916      -0.01289904       0.03588305      -5.57349402
Si      -5.00028989      18.10789867       0.08012179      -1.48753123      -3.97429193      -0.90632943       0.00237918       0.00661749      -0.01173487      -5.45938069
Si      -1.87155067       8.47907258       3.77297563      -0.56042649      -0.42510702      -0.85490157       0.01169518      -0.00914308      -0.02040999      -5.90509802
Si      -0.47731243      11.44544236       1.49433754       0.20895759      -1.10211676      -0.67960178      -0.00588429      -0.02207175       0.00096849      -5.41151720
Si      -4.02168614      15.57774304      -2.59116737       0.30670831      -1.36985915       0.55292022      -0.00539073       0.01710251       0.01652578      -5.23993164
N       -5.31086133      19.43225976      -8.82365094      -0.71567695       0.47924214       0.10953395       0.00563057      -0.01967043       0.03253670      -9.12756562
N       -0.22425350      14.07433398       5.12299601       0.52465296       0.56642747      -1.57919063       0.00810434       0.00267331      -0.00132880      -9.40505385
N       -2.81894445      15.34683655       4.47250986      -0.48365101       0.73472867       0.94622239       0.01965979       0.00291258      -0.00107542      -9.67437625
N       -6.49242312      17.75964725       0.93302619       0.56484922       0.56673312       0.30656742      -0.01608691       0.01228175       0.00568673      -9.23882842
N       -5.61177172      16.18271741       3.54194738       0.14471616      -1.89352923      -0.44126488       0.00965083       0.00737345       0.01208991      -9.28121924
N        2.33038489      13.70420791       1.16127226       0.47596257      -0.60323653       0.64489413      -0.00783838       0.01063038      -0.01582978      -9.49826550
N       -8.07509796      15.82154011      -0.71852795       0.45098568      -0.66371614       0.46152247       0.00083664       0.02573610       0.00451306      -9.70128846
Si      -9.61399579      20.15316575      17.88698768      -0.66038263      -0.83817531      -1.30429279       0.00762981       0.00611007      -0.00028202      -5.69068438
Si      -7.31703884      16.33427289       3.62229805       1.61290319      -0.98994793       0.41632724       0.01194680       0.02677104       0.00322207      -5.88509995
Si      -5.11500579      12.18332832       7.76685913       4.86807489       0.31465591       2.92902566       0.00769548      -0.00729799       0.00868429      -5.72614342
Si      -1.20844731      20.61976053       2.31361466      -1.00302785       0.67647138       0.19186917       0.00746644      -0.00793950      -0.00789545      -5.98420197
Si      -7.82575678      19.34448267       4.64104644      -0.78987324       1.31176996      -1.49722826       0.00633737      -0.01783672       0.01035553      -4.90811735
Si      -4.37119704      14.29303781       7.18019453       0.65069962       0.57864891       1.88009915       0.00580806      -0.03602749       0.00930941      -5.45856005
N       -8.09559969      15.90767280      13.75657394       0.44736081       0.29132901       0.70265130       0.01074874       0.00094869       0.02157287      -9.80021453
N       -3.40451203      17.36648587       3.26822863       0.31022377       1.05574191       1.89250238      -0.02776191       0.00734060      -0.00252416      -9.93177629
O       -5.14242912      19.74052843       0.23639925       0.00329606      -1.26923239       0.02644763       0.00074298       0.00902510       0.00700414      -8.81846178
N       -9.58322586      19.29912319       4.75754231       0.87155044       0.22089669      -1.44804514      -0.00573610       0.00150555       0.01191051      -9.26566863
N       -2.71901086      13.85423786       6.62303928      -0.03711824       1.73580300      -0.34211765       0.01698665       0.00527877       0.00496237      -9.68370652
N        1.77903016      18.48009153      -5.60914835       0.45369742       0.10218310      -1.29731379       0.02312088      -0.00210344       0.03903855      -9.90759683
N       -2.37547416      12.90520983       3.68413355      -0.09182235       0.15902723       0.32531593       0.01847629      -0.00741535      -0.01374406      -9.57813430
N        0.48304678      11.80496320       3.07060028      -2.08510196       2.11271329      -0.09876188       0.02089316       0.00440866       0.00318803      -9.09215283
Si      12.81449766      -0.18163363      -4.24298950       0.52254191      -0.31172335       2.93897284      -0.00782700      -0.00946075       0.00073203      -5.71044117
Si      17.68224650      -7.52550796      -2.34117760       0.49641407      -1.27325574       1.03767724      -0.00965089      -0.00740002       0.02944216      -4.86114603
Si       8.61394767       3.22541041       1.75748164      -1.35042363      -1.85644273      -0.78222853       0.00162163       0.00814186       0.00177651      -5.86904103
Si      13.52424022       7.25360978      -4.12946145      -0.05153203       0.83978858      -1.01752788      -0.01298258       0.02198760      -0.01220205      -5.77504069
Si      13.53703192       2.20997100       0.43969332       0.10854323       1.54760863       1.46612849       0.00821640      -0.01996018      -0.00243818      -6.09592491
Si      10.88700055       6.25153211      -2.17538223      -1.17959784       0.75944878       0.02227786       0.00074987       0.01223677      -0.01232698      -6.01190859
N       12.41230169       3.47362451      -5.01924566       0.08089572      -0.86290214       0.55207306       0.01480228       0.00605392       0.00094298      -9.56948638
N       10.17153288       2.59298359       8.07843829       0.34251075       0.02502772       0.37149208       0.00000724      -0.00940392       0.02060628      -9.43753982
N        8.05326188       3.95595283      -2.58353409       1.10114329       1.63688731       0.26084790       0.00000510      -0.00331086       0.00375273      -9.32389998
O        5.43084849       2.65546272      -8.42897009       0.85550084      -0.90011444      -0.33954708       0.00654263      -0.00115766      -0.01346290      -8.92893064
O       17.52747049       1.95561270      -6.72515065      -0.09661533      -1.25607154      -0.26949722      -0.00278377      -0.01163693       0.01511921      -8.97889602
N       10.61278893       5.28619906       5.09939455       0.75147539       0.16038290      -1.11195013       0.00025663      -0.00136223      -0.01040152      -9.45161128
N       19.13555536       0.45862669       1.26951695      -0.21199393       2.63771324      -0.64464130       0.01104122       0.01205283       0.00386709      -9.61183619
Si      10.82215987       6.24629565      -5.06364179      -0.98035738      -0.07660892       0.87831484       0.00916229      -0.00199040      -0.01400208      -5.97415358
Si       8.85827116      -1.73432747       1.87610743       0.06986967      -0.24059036      -0.12637403      -0.01531175       0.00442261       0.01244719      -5.84953505
Si      19.79519853       4.79021234       3.33473152      -0.52278684       2.49973207       2.26166122      -0.01401258       0.01333533      -0.00308740      -6.06865746
Si      14.38300370       3.85179542      -1.63814355       0.63290010      -2.36013185       0.73548162      -0.02165818      -0.00595498      -0.00239228      -5.84001833
Si      21.67392705       0.91225648       3.48777076      -0.65822196       0.93760920       0.76428426      -0.00902942      -0.01429566      -0.01091738      -5.44219404
Si      11.16535760      -1.49011692       9.27968642      -0.87500785      -0.64536455      -3.14244052       0.00590745       0.01443296       0.00094293      -5.69482809
N       10.69088568       5.22567985       2.18726034       0.86855609       0.62335375       0.35298177       0.00547184       0.00115776      -0.00221723      -9.48397613
N       14.90489261       2.91230188      -6.04592693       0.23465520      -0.74111220       0.06066557       0.00107692       0.00889935      -0.00441245      -9.46574330
N       10.71387626       0.15131768       3.81592478      -0.38827948      -0.21848617      -0.45240930      -0.01043326       0.00826177       0.00488685      -9.34279370
N       11.23201853       0.36847429       1.01470050      -0.34934165      -0.08980248      -0.80443126       0.00519182       0.01316398       0.00528160      -9.45772290
N        9.84352818       7.57933083       4.23532087       0.46572978       1.09839075       1.21465261       0.01652503       0.00216270      -0.01487949      -9.38538051
N       15.12631823       5.38735425      -1.27960319       0.35373827      -1.23943943      -0.39467164      -0.03451074      -0.00030720      -0.01600875      -9.74490762
N       -0.23174878      -3.11425946       4.78140281      -0.46951777       1.24179790       1.09506187      -0.01758889       0.01054338      -0.01769720      -9.16513515
N       12.87290406      -1.14589819      -2.70862412      -0.61772507      -0.28859924       0.71142554      -0.00583673       0.02681664      -0.00896910      -9.74703288
Si       6.85748483       1.46100361       0.10807828      -0.55366214       3.61942295       1.17592145       0.01029398       0.01094075       0.00969225      -5.85791641
Si       3.80700576       2.41783789      -2.68506490      -2.82866906      -0.49978083       1.32498209       0.00541412       0.00366491      -0.00024447      -5.89158398
Si       8.11705147       7.78160332       1.43899212       0.25824180      -0.95923186      -0.61399045      -0.00713631       0.00240543      -0.01344140      -5.80970389
Si      12.59529790      12.92256360      -4.16986512      -0.97372865       1.75877507      -0.17897695       0.01824434       0.00308585      -0.02841537      -5.52855736
Si       6.16495235      12.88195975      -5.54139032      -0.36910414       0.04804206      -1.11924835       0.02189614       0.00732614       0.01776874      -5.22691780
Si       4.72664225      10.66422802       1.61905278       2.86790278      -0.55138413       0.29402512       0.01677531      -0.00214607      -0.00287862      -5.56072003
N        7.30430543       7.25961197       2.90309897      -0.97956670       0.10446889       0.79405830      -0.00072549      -0.02433024      -0.01616171      -9.35530782
N        7.67679076       9.37945043      -1.34461229       1.14963867       0.95433987       0.68222496       0.00187462      -0.00258896      -0.01421899      -9.35486388
N        2.34473902       8.19550262      -2.85314198       0.44923771      -0.61203149      -0.79562731       0.00306754       0.00210164       0.01104558      -9.50191331
N       11.97757394      11.93756984      -2.78786535       0.38159741      -0.11564447      -1.05581985       0.00183750      -0.01384147      -0.01942212      -9.19811177
N       14.56683032       7.93429942      -2.49752421       0.47557342       0.87942311      -1.69907863       0.01548308      -0.00250438      -0.03093909      -9.62202811
N       10.12058186       9.95466886       0.15902140      -0.48286735       1.45262447      -0.76992612       0.03465503       0.00792123      -0.00872914      -9.36914945
N        3.51314462       5.61751960      -2.71424041      -0.89608459       2.37963457      -0.02803403      -0.01396284      -0.02603945      -0.00806800      -9.57546496
Si       7.10647794      10.34176095       5.80807550      -0.44490893       0.35814679       1.98114418       0.01263514      -0.00499403       0.02381100      -5.13797289
Si       4.43671717       5.83796334      -1.28719052      -2.30070324       1.92382392      -0.99485943      -0.01567999       0.01215325      -0.01109578      -6.08518416
Si       6.31438934       4.06346642       3.14992162       0.43638668       0.38582176       0.62867470       0.00781114       0.01325130       0.01107205      -5.95489079
Si      10.24684234      11.68853527       3.11616870       0.32178989       0.99191627      -0.11822802      -0.00232859      -0.01963425       0.00605792      -6.00155646
Si       8.59119291      13.65858678      -0.99195722      -0.52933160       0.78118083      -0.49777645       0.00240985       0.00676522       0.00104633      -5.72040945
Si       2.35487991       9.34855604      -1.50768367       0.83730344       0.69261234      -2.15786551       0.02798992      -0.01133168       0.01033774      -5.37597090
N        7.53072504       1.90585240       7.44575296      -0.35660073       0.10528360       2.03445797      -0.00654631       0.01450372       0.02077842      -9.23498559
N       10.06450776       9.97228540       3.04609529       2.08271951       0.03449089      -1.19858000       0.02493882      -0.00811151      -0.01535936      -9.45210433
N       12.43106986       6.92143137      -8.31174186      -0.09334847       0.25324232       0.92624928      -0.00694528       0.00921113       0.02265373      -8.80013156
N        4.49651393      14.39093185       3.11710238      -0.09277035      -0.80603982       0.19901300      -0.02278378      -0.00395396       0.01556849      -9.45311189
N        4.00780515      16.30577288       6.90897892       0.69110298      -0.43611331       0.14569750      -0.01558454       0.00319317       0.00006039      -9.60042071
N        9.50339435      12.33158061       1.70121993      -0.23610782      -0.74855801      -1.15239548       0.00377899      -0.01574524      -0.00358807      -9.57333875
N        5.83880368       4.84830243       1.68233498       1.53574175      -0.45689448      -0.62198649       0.01146134      -0.00049028      -0.00753416      -9.49041200
N       13.83900746       1.14641649       1.76877325      -1.67071791      -1.73764104      -0.69140285      -0.02786851      -0.01333879       0.02763644      -9.66923881
Si      -1.98636326      13.96517348       5.03571540       0.03225020       0.15771883      -0.03507616       0.00446919      -0.00841704      -0.00429573      -5.86050373
Si       0.14098810      17.38886069       0.49468761      -1.77451734      -2.72386123      -1.05915732      -0.01245460       0.00009152      -0.00826142      -5.36841780
Si       2.29120828      12.02251356      -5.26337111       1.79730310       0.59638176      -0.38514927       0.01019067      -0.01074924      -0.01074845      -5.83894974
Si       6.34200458       4.12363384       6.02209460      -1.52021278      -0.30173606      -0.80354674      -0.01242505      -0.00708764      -0.01571544      -6.13000256
Si       7.24885993      10.20694870       2.98815624       0.75467141      -1.90270736       2.87570014       0.01836630       0.01421914      -0.00754232      -5.35139281
Si       4.37727354       5.75339719       1.60123019      -0.19177735       0.98723118      -1.75118656       0.00682081      -0.00515024      -0.01071903      -6.08392769
N        1.21775341      23.54475073      -7.85900595      -0.59256525       1.66750464      -2.14627045       0.01101473       0.00724256       0.00023760      -9.30647206
N        3.65219866      17.46427287       4.43613585       1.24768760      -0.08289401      -1.09545443      -0.00859761       0.02160352       0.01430514      -9.37509131
N       -0.84752537      17.54485725      -3.86365754      -2.53434342      -0.23159172      -0.49823706       0.00039011       0.01783049      -0.01183664      -9.47429776
N        4.90777863       7.41581991      -4.36374637       0.52736302      -0.61565229       0.56500422      -0.00476500       0.01124138      -0.00907257      -9.41233850
N       -3.30879168      23.67151029       6.02807617      -0.03480201       0.03107416      -1.57337501       0.00114365       0.03298524       0.00111158      -9.26113725
N        0.66991197      11.54757953       0.13707487      -0.36413240       0.37775150       0.72700429       0.01751371      -0.00059374       0.01001015      -9.19592357
N        6.08005820      18.87256790       3.22793607      -0.99330361      -0.22899918       0.42896360      -0.00157455      -0.02099635       0.01189768      -9.54434133
N        9.92160962      14.66875351      -0.77998932      -1.20004081      -1.30588149      -0.17567926       0.00573753      -0.00728077       0.04797769      -9.26482320
Si       0.70899201      13.53118940       3.60276762      -1.09543429       0.92197106      -2.62300033      -0.00263894      -0.04534575      -0.02021977      -5.45744282
Si      -2.83291127      11.22572053      -2.08552823       1.00083259       0.43913422      -1.72887174       0.00618735       0.00457180      -0.02777693      -6.03234011
Si       4.88011261      18.78416242      -1.32877618       0.10694102      -0.24853590      -2.19284240      -0.03010334      -0.01028703      -0.01088078      -5.78936011
Si       5.74524667      16.76651900       6.47422987      -0.41176255       0.08201338       0.79207543      -0.01028186      -0.00770225      -0.01591448      -5.71874005
Si       7.07151184      17.49075199       3.69765635      -1.83752035      -0.27079817      -0.65728625      -0.02398387      -0.01586428       0.01699972      -5.52868801
Si       3.12293801      13.92946340      10.11908055      -0.47661425       0.78015506      -1.93892257       0.00088507      -0.01097697      -0.00562340      -4.47062904
N       -0.81419611      17.42383518      -0.94482975       0.36538954       0.48307987       0.69024610      -0.01212974       0.00791925      -0.00447473      -9.74146724
N        2.98952639      10.73615979       7.40486178      -1.16277041       0.56064738       1.26056462       0.01679370       0.01395607       0.01441297      -9.50828195
N       -2.62755008      19.66869659      -3.61252362       1.82860265      -0.94157805       1.30086762       0.00028044       0.00137635       0.01393692      -9.30793834
N       -0.20259731      14.28277886      -3.58606600       1.45718531       2.97518775       0.38774376      -0.02446181       0.02071944      -0.00622929      -9.41630578
N        5.17392747      21.12851548       1.58968514       1.33406956      -0.69996111      -0.95640705      -0.01622921       0.02259895      -0.01175906      -9.59691691
N        2.80871538       8.48375205       5.81381715      -1.10272698      -0.49842187      -0.31741919       0.00927231       0.00900530      -0.00124195      -9.30413795
N        5.19354428       9.98726376       5.83566464      -0.55421804      -0.58076198      -0.42970212       0.00659521      -0.01773467       0.01132613     -10.07789731
Si      15.83522088      16.06224513       0.73395229      -0.32711989       0.20748237       1.23890054      -0.00252271      -0.00331599      -0.02009268      -6.15030247
Si      11.12643101       1.07292548      -6.43933759      -0.78428104      -0.49927647      -0.98180814      -0.00835373      -0.01536492      -0.00892178      -5.87628943
Si      15.89337465       5.61303075      -5.49383235       0.60213793       2.65818484      -0.49432402      -0.01498672      -0.01518000      -0.00399420      -6.15882307
Si      22.44673448       4.95503776       1.92723277       0.21413917      -0.59497089      -0.15674473      -0.00642806      -0.00298482      -0.00078173      -5.72990662
Si      15.49187338       9.30266496       0.25496042      -0.30967337      -0.93476674      -0.27445869      -0.00042447       0.01212172       0.01160858      -6.16856056
Si      15.28481449      -5.18911216       1.45588103       1.27297570      -0.16441366      -0.13627049      -0.02344725      -0.00382403      -0.00738825      -5.51130635
N       21.52997795       5.18377346       3.47190793       0.19395456       0.25522600       0.36366689       0.00979459      -0.00417671       0.00147539      -9.54850173