244
Lattice="22.813200000000002 0.0 0.0 -11.406599999999994 19.75681074161516 0.0 0.0 0.0 5.8164" Properties=species:S:1:pos:R:3:momenta:R:3:forces:R:3:energies:R:1 energy=-1883.8262939453125 stress="-0.003629992250353098 -0.00029321995680220425 -0.018740151077508926 -0.00029321995680220425 -0.022254224866628647 -0.00731284124776721 -0.018740151077508926 -0.00731284124776721 0.025351932272315025" free_energy=-1883.8262939453125 pbc="T T T"
Si      -3.15051787       4.07793231       1.98391690       3.27509282      -2.61415452       2.00419232      -0.00506712       0.00231242       0.01048107      -5.67911965
Si      -4.79066304       0.75811076       4.26260569       0.86937931       0.77448053      -1.28022887      -0.00677546      -0.00488275       0.00671665      -5.52808195
Si      -0.07989305      -1.81903169       3.54234898      -0.80903471       1.71994399       0.93470839      -0.00160520       0.00509149       0.00444575      -6.06580073
Si       3.89711106      -2.65960774       2.80168780       0.35996143      -0.08920295       0.87836273      -0.01707968      -0.00236084       0.02097471      -5.69433314
Si       6.08378649       4.15212641       5.80534413      -0.66279356       0.50073625      -1.29471362       0.00514592       0.00501642       0.00539780      -5.64338261
Si      -0.46044248       1.83809173       4.32407222      -0.62452245      -2.58321680      -0.30190621      -0.00816238       0.01911438      -0.00845638      -6.03084427
N        3.29742118       8.91800612       2.75688188      -0.19155279       0.00513153      -1.20034289      -0.00696631      -0.01774396       0.04380085      -9.45597863
N       -0.86974095       1.01715586      11.63746887      -0.00312817      -0.75125186      -0.70930173       0.03049299      -0.00518340      -0.01787455      -9.22511744
N        1.24242841       2.03459680       4.05786952       0.61851566      -0.54580490      -0.81577499      -0.00446412       0.02606764       0.01363474      -9.53386664
N        2.42856185       6.46749495       7.54629989       1.28912474      -0.08509087      -0.21385130      -0.00000294       0.01598673      -0.00743732      -9.43007731
N       -1.77169191       7.36662150       0.63695027       0.42956609      -0.60874727      -1.10133726       0.00396445      -0.00497010      -0.00179145      -9.35129952
N        9.73133210       5.76664330      12.68335762       0.44074673      -0.39069580      -0.01149376       0.02632552       0.00124407      -0.00114435      -8.68334937
N       -1.34966698       3.34125413       4.59080915      -1.11225302      -0.00164866      -0.72746598      -0.00663862      -0.01190862       0.01012599      -9.58520770
N        4.87488007      -4.03020727       9.11981207      -0.56203163       0.27199343       1.55100471      -0.00665151       0.00808604      -0.01308042      -8.73696733
Si       1.51645250       6.52820092       3.28285808      -1.55659118       0.34580468       1.41233020       0.00136175      -0.02788383       0.02596417      -5.65439898
Si       4.98373482       9.04787025       5.86861272      -0.59930504      -1.64000768      -0.32517784       0.01089646      -0.01305419      -0.01223500      -5.83194882
Si      -4.55135703      12.21482338      -0.21465063       1.14560125       1.08158785       2.40599798       0.00469150       0.02454881       0.02094743      -5.77000433
Si       1.68160928      -3.99246329       6.55142182      -0.60847924      -0.54961027      -1.98527776      -0.00406554      -0.01772034       0.00121245      -5.31391340
Si       4.24569559      11.82613184       8.78396683      -0.61572472       0.79872757      -0.94464253       0.01680199      -0.01026434       0.01743519      -5.16888434
Si      -0.92271478       1.91257827       7.31610380       1.48124900       0.63186539       0.56326306      -0.02458575       0.00348708      -0.01187198      -6.01903826
N        1.56494577      -1.56737600       0.36001655       1.12638210       0.50983996       0.18636933      -0.01304775       0.02247843       0.00509520      -9.38842797
N        1.22392486      11.34501723       6.50127702       0.34777290       0.61482732       1.55681557       0.00231767      -0.00921878       0.01472315      -9.38423848
N        1.54827924      -1.14614649       3.26618280       2.09893695      -0.42127352      -0.21163833      -0.00278340       0.00279537      -0.00814950      -9.44501138
N       -5.92843555       5.96771490       5.71981593      -0.41311524      -0.65045496      -1.65493019      -0.00991255       0.00509946       0.00493985      -9.13939309
N        2.17950235       1.10648184       7.12652644       0.39594331      -0.45628782      -1.93532760       0.00963999       0.01006295      -0.02195529      -9.44893718
N        0.48224108       5.21656753      14.98538459      -0.74581639      -0.81216421       0.11646859      -0.02700707      -0.00084844       0.00308084      -9.46005464
N        3.12075984       3.63588815       2.38718000       0.25100938       1.65923754       0.09054548      -0.01046458       0.00850156      -0.02430931      -9.69866443
Si      -5.82755414      14.69321873      -4.07780910      -2.62009608      -0.66304991       1.04868921       0.02070525       0.00400189      -0.00283991      -5.89501292
Si       2.46599787       8.22433486      -4.46602459      -0.72646182       1.79926018      -0.94231390      -0.00689383      -0.00662150       0.00159285      -5.80006272
Si       1.52408881      12.41958266       2.07656860       0.33974784      -0.88514842       1.70673026       0.00035289       0.01077373       0.01717053      -6.04456764
Si       1.77108050       2.49448067       8.19912601       3.15925097       0.13124969       1.36276012      -0.02464143      -0.00704576       0.01730322      -5.92273527
Si       4.36358636       6.24169042      -1.25934138       0.13688951       0.22831622       0.91318544      -0.00715184      -0.00898615       0.02185427      -5.63410336
Si      -2.54864414       6.89444869      -3.69474486      -1.22246760      -0.30716543      -0.74328139      -0.01887789       0.01577234      -0.01503757      -4.95785958
N        4.40674569      14.94371729      -8.85881299       0.53152706      -0.28761057      -1.59002213      -0.01558371      -0.01402488       0.00286955      -9.60945868
N        0.86804548       8.22376783      -2.15854110       0.04115041      -0.90701691      -0.15450301      -0.00244030       0.00655121       0.00455222      -9.14463735
N        0.80442456       8.49100302       0.86698650      -1.54360180       1.98526829      -0.01175593      -0.03095303      -0.02501696       0.00700572      -9.45966744
N        4.21987997      17.29567168       4.06469350      -0.19453995       1.18681754       0.03693024      -0.01753256      -0.00279721       0.00586440      -9.22272801
N       -9.65464978       9.63490328      -2.54287032       1.01027195       1.36473348       0.85403349       0.00885394      -0.00042969      -0.01048164      -8.79674363
N        2.73375236       6.74960958      -1.33802537       0.11221961      -0.41941191      -1.50407935      -0.00417967      -0.01083633      -0.01766218      -9.31557965
N       -0.80623253      10.18690088       4.85424148       0.80550600      -0.33964726       0.19198359      -0.00584969      -0.00152019       0.00828519      -9.69219518
Si      -6.70500425      12.75331468      -2.22249114      -0.47993069      -0.30997730      -1.63801852      -0.01137104       0.00597230       0.00119298      -5.66652495
Si      -1.05558045      13.67067658       7.02322515      -0.20159009      -1.14020202       0.70650636      -0.00189577      -0.02148311      -0.01995323      -5.56929260
Si       3.41309434      16.30724533      -2.95680381       1.11638007       2.20081684       1.64354860      -0.00049269      -0.00351202       0.00269130      -5.38734537
Si       2.50636066       8.49176625      10.10596664      -2.36913405      -1.76348719      -1.46291310      -0.00956309       0.00816843      -0.00660853      -5.46057469
Si      -1.79620556      11.67199265       4.83607097      -0.33506482      -0.96552226      -0.43982482       0.00550261       0.00459039      -0.00665351      -6.07946306
Si      -4.74216300       4.89430571      10.76652940      -2.31115507      -1.08577342      -0.62235868       0.01134455      -0.00488475       0.01155391      -5.98665053
N       -4.20978354      15.29665611      -3.56501042       0.16094444       0.02926641      -0.47918724       0.01335102       0.01291703      -0.00410992      -9.49474025
N        1.72948020      16.53319066      -0.21310488      -0.07657523       0.57810678      -0.37498361       0.00879598       0.01877116      -0.01386687      -9.28267550
N       -2.96780731      11.54882677       0.30279985       1.01123693      -0.36874963       0.28131575      -0.00522715      -0.00677670      -0.01000759      -9.39818978
N        7.52876284      12.34435432       4.99836516       0.42529033       0.36596177       0.83145153       0.00004670       0.00498866      -0.00101131      -9.20984054
N        1.79427456      16.81186507      -3.10322956       0.73860960      -1.27615892       0.73359010       0.00485727      -0.01661164      -0.01822516      -9.20357728
O       -1.78877483       7.80073883       3.51281806      -0.47960880      -1.38745795      -1.03114533       0.00695805       0.01487380       0.01445195      -9.47096622
N        4.81769984      12.77594263      -1.48629663      -0.39027550      -1.03454290      -2.52431551       0.01773447       0.00604165       0.03170765      -9.38675284
Si     -11.52107378      24.61302125       1.71219643      -2.40032595      -3.13576677      -0.60305091       0.01245567       0.02730639      -0.01338938      -5.09167868
Si      -3.87821592      17.00916898      -3.06370655       1.30948923      -0.91857524       1.67121400       0.01485493      -0.01963875       0.00046342      -5.86614519
Si      -5.75155067      18.90437008      -1.50389153       1.63142023       0.15846352      -0.78407351       0.00276540       0.01258997       0.00743134      -6.05702072
Si      -0.00652525       6.96168636       0.44549383       0.50307259       0.29085466       1.43214169      -0.01235090       0.00408551       0.00218597      -4.58649403
Si      -3.62398737      13.63788195      -2.48476176       1.27621814      -1.80821696      -0.12800603      -0.00673203      -0.00798588      -0.02045864      -5.35983759
Si      -1.93937589      15.83650688      -1.44416053      -2.79418347       0.53347550       1.48351912       0.00855383      -0.00246118       0.01717201      -5.78889090
O       -8.82822556      15.79001696      -0.83668591      -1.16102998      -0.07156159       0.73681839       0.00126693      -0.00436530       0.00501158      -9.44887340
N       -5.05410084      12.89900512      -1.83412905      -1.36766540      -0.25719742       1.21969352      -0.01517853      -0.00032097      -0.00798038      -9.21197772
N       -7.34850939      18.11714627      -1.52915237       0.08710356       0.35130038       0.18179524      -0.00379037      -0.00197378      -0.01140721      -9.26823592
N       -5.39273771      19.86145659      -2.93394759       0.20100116       1.31999947       2.94780382       0.02261211      -0.01724800      -0.00433632      -9.66318536
N      -16.91562485      18.66940681       8.23357837      -0.53083929       0.71876716      -1.40948658      -0.00330009      -0.00102159       0.02202564      -9.43738484
N        3.49693930      21.61746516       4.72131567      -1.13887358      -0.17035362      -1.30224960      -0.00468174       0.02287891      -0.00385397      -9.09496522
N       -7.41885754      18.40725426      -4.19816849       0.44179052       0.27249684       1.62441586      -0.02946723       0.00150396       0.00609388      -9.34849095
N       -0.17107434      15.16019421       1.10134049      -0.10001985      -1.31862933       0.26923889       0.01162841      -0.02738684       0.00969553      -9.24901319
Si      -7.09239564      15.17803662       4.82813862      -0.50000552       0.58890332       0.58148267       0.00148237       0.00170884       0.00035773      -5.41607052
Si      -3.38093755      17.92643726      -0.06278824       0.22198225       1.50657238      -1.02542727      -0.00099019      -0.00440738       0.00272968      -6.03647810
Si      -5.79698870      19.04586349       1.40516465       2.64419849      -0.66057323       0.20272369      -0.01885684       0.00028667       0.00672554      -6.01688677
Si       2.20263470      12.13365580      -0.66797153      -0.95047219      -1.65341473      -1.29720979      -0.01996028      -0.01925039      -0.00234225      -5.37659985
Si       0.05126819      13.81464948       4.10799358      -1.04377764       2.79015562       0.56728927       0.00114955      -0.00786510       0.00379426      -6.00164801
Si      -3.27392782      14.58683928       0.69948768       0.95396661       1.14271142      -0.25393397      -0.00369936       0.00749252       0.02152435      -5.32663351
N       -2.35731939      16.49825812       6.00199472       0.45457789       0.70724855       0.08191253       0.00493146       0.01712631       0.01094590      -9.78731132
N       -0.86616422      13.00864140      -0.45356325       0.58952543      -0.11001817      -0.66987061       0.00395345      -0.00023002      -0.00454650      -9.27541280
N       -7.47792083      13.45948353      -0.83669645      -0.23517324       0.18356958      -0.42826587       0.01359504      -0.00357552       0.00339358      -9.34612823
O       -7.74037619      22.09325301       4.83626708      -1.51371328       0.22317523      -1.56748032       0.00171936      -0.00104175      -0.01646648      -9.08357465
N      -12.35932278      18.22942199       7.88838643       0.30457332      -0.56472357       0.77179663      -0.00775442       0.00188838       0.00392012      -9.48235059
N       -0.09605585      17.98763936       1.31937924       0.68457143      -0.39196062      -0.41612529      -0.00677334      -0.02157162      -0.00054958      -9.15673709
N       -3.07181544      14.57525785       4.66547548       0.75040215       0.54929655       0.06527799       0.00012051      -0.01453221      -0.00270408      -9.14297938
N        2.45834277      11.68914566       3.38970619       0.75998098      -1.09754370      -0.10075255       0.01190871       0.00497097      -0.00839314      -9.15180182
Si       7.46184287       7.80107929       1.38496791      -0.31207552      -1.16324528       0.19505352      -0.00063744       0.00763043       0.02283840      -5.92847782
Si      10.15518588       5.13627674      -3.17684603      -1.75506139       0.17237530      -1.86395219       0.02001396       0.02021122       0.00207718      -5.88268477
Si       8.63719530       5.46965441      -0.38925096       0.48541581      -1.44055441      -2.23988027       0.00449704       0.00674689       0.00934011      -6.05142647
Si      16.07430051       5.37870780       7.06603809       1.10920589       1.35100946       1.10459966      -0.00064558      -0.00428689       0.01228015      -5.41955382
Si      12.65608003       1.77869972       1.24185611      -0.21797659      -0.87235195      -1.91139560       0.02482045       0.00198865       0.00103819      -4.64719731
Si      10.27320727      -0.33359392       7.17248725      -0.89162117      -0.42634392       0.12050440       0.00574619       0.00358021      -0.00810280      -6.26441485
N        9.13693602       3.66801322       5.71908827       1.58209570       0.87223531      -0.15751876      -0.01334610       0.01409656      -0.00772694      -9.33703685
N       16.77157549       3.62197187       4.87271839       1.18331711      -0.12853255      -1.40268256       0.01009488       0.01086026      -0.00991833      -9.03751731
N       11.11607092      -4.22662086       4.11189993      -2.48709119       0.41789972       0.56053013      -0.00340799      -0.01040594      -0.00858482      -9.41541553
N        9.24191726      -0.56345197      -0.11399172      -0.39866419      -1.01875740      -0.12538246       0.02232665       0.00020415      -0.02177847      -9.41445661
N        7.01146520       4.44379265       7.32234009      -0.36848109       0.34189192      -0.09495987      -0.02737161       0.00538290      -0.02807012      -9.54535556
N       15.14019831       1.74310376       7.06396516      -1.28321703       1.35171495      -0.56764782      -0.00487131      -0.00279381       0.01091096      -9.22817397
N        7.77432092       1.68552440       4.25493150       0.97199501       0.05702951       0.51619299       0.01699897       0.00659811       0.00669821      -9.57971740
N       16.91521165      -9.18784404       3.19012169       0.63584581      -1.27743022       1.01388207       0.00189085      -0.01101631       0.00056255      -9.43464017
Si       8.38024387       3.31118337       7.26492065       0.80290689       0.02465021      -2.53427417       0.00598717      -0.00956436       0.01308756      -6.07051331
Si      -1.04398937       4.94732738       4.12129742       0.46980583      -0.55731857      -1.37702308      -0.01872905      -0.01022890       0.00810128      -5.35844570
Si      17.19409437       3.21447893       9.06843755       0.69059712      -0.87725055      -0.97177123       0.01021072      -0.00356387      -0.00398427      -5.67878395
Si       3.69633028       5.20902155       7.54132051       1.06811159      -1.98737470      -0.68834941       0.00677523       0.01643074       0.00298889      -5.82168776
Si       7.66313302       0.76729642       8.61018856       0.20850637       0.04453850       1.68920095       0.00947764      -0.00577111       0.02141318      -5.98956591
Si      10.15962692      -0.11939153       4.24490490      -3.08089827      -0.53914004      -2.14600989       0.01384944       0.00975670      -0.00887308      -6.09096915
N        5.80123639       0.17644171      -0.08714927       1.66606725      -0.19304501       0.20371316       0.00232892       0.01362455       0.01067262      -9.70045495
N        7.02691689      -2.00894642       4.30567414      -1.08922393       0.31815774      -0.24196842      -0.01398221       0.02950216      -0.00762865      -9.45323062
N        4.88271170       5.52325847       8.85586390      -0.12810531      -0.01661018      -0.51391599       0.01565312      -0.00595177       0.01514650      -9.69127011
N       13.26262767       2.56040535       2.80686923      -0.18441054       0.04595963      -0.98569320      -0.00282110      -0.01847589      -0.00840132      -9.58401370
N        7.70355750       9.48033748      -1.20599622      -0.65885463       0.86387728      -0.53474592      -0.00058019       0.00301692       0.00097701      -9.49676394
N       12.12019375       3.87092547      10.92554410       1.59208450       0.88074320       1.00553270       0.01389903       0.01067072       0.00116664      -9.04373240
N        6.95592393      -1.85927178       7.15166923       1.34488442       1.55901161       1.12678016       0.01843979       0.00954027       0.02046834      -9.52106404
N       10.59270282       1.58658684       4.39507899       0.48578855      -1.55067847       0.02836929       0.01350147      -0.00423150      -0.00651366      -9.43535066
Si       1.72220699      17.74871101      -4.74790427      -1.11378649      -0.55353626      -1.73370967       0.01542568      -0.01107934       0.01070968      -5.80166966
Si       7.19830258       7.82915279      -1.46563742       0.59493125       0.41677055      -0.78148455       0.00171256      -0.01021314       0.02489982      -5.91505963
Si       6.63255864      10.89767039      -1.27230735       0.51504987       1.08107800      -1.61518386       0.00756283       0.00188270       0.00156634      -5.83140713
Si      12.66964589      10.76412530       6.43595988      -2.54099009       0.35312607      -1.75035941      -0.00900883      -0.01029253      -0.01419719      -5.87582451
Si      11.04411311       7.27844901      -1.37831509       0.29692992      -1.62348904      -0.24078741       0.00227225      -0.00583368      -0.01953763      -5.85961396
Si       9.24652926      12.21228650      -1.06185027      -0.25775160       0.05554800      -0.22297812      -0.00893092      -0.02657894      -0.00764864      -5.92035156
N       10.35505497      13.63064165      -6.94243634      -0.88703784       0.09187868      -0.47434145      -0.01722343      -0.01347508       0.02208066      -9.39240527
N        9.87257595       5.97012699      -1.65144361       0.38550699      -0.15571330      -1.45098562      -0.00675203      -0.00330158       0.00400890      -9.41373992
N        7.46147734       6.94662176       2.87904072       0.38797908      -1.20357106       0.21731285      -0.01490082       0.00381157       0.01225188      -9.42198491
N        5.74519233       8.32941422      -4.39821664       0.89145073      -0.41184928      -0.75949008      -0.00225979      -0.00533718       0.01279809      -9.58302808
N        6.74758862      14.91137736      -1.56868770      -0.26146981      -0.16508624       0.13824563       0.00231713      -0.02269497       0.00106797      -9.58308148
N        4.60855303       5.21789923       0.16172248       1.08435529      -0.48605519      -0.40574472      -0.02089474       0.00426854       0.00512569      -9.58026671
N        7.08657571       4.84840552       4.53595775       0.13603291      -0.03514872       1.39838352       0.00835422       0.01466502       0.00322923      -9.04824901
Si       4.05760258      14.07486933      -4.51025262      -0.25491396       0.68238989      -1.58899338      -0.02558288       0.01644331      -0.01181896      -5.49225813
Si       9.95091491      11.86158902      -3.99778586       0.47531653       3.79492603      -2.54414777       0.00153017       0.00211449      -0.00313348      -5.55028731
Si      12.05920469      13.18196268      -3.82384068      -0.30954539       1.01502970       1.93238987      -0.01373917       0.00123747       0.00070980      -5.66074282
Si      11.18668073       5.04666016       0.35141355      -0.08259966      -1.12168934       0.65897419       0.00509694       0.01665625      -0.00014538      -5.59317309
Si       5.09229318      14.42019527      -1.54317424       0.24607689      -0.76988741       2.42016002       0.00800213      -0.00004590       0.00169656      -5.85695273
Si       4.42446506       3.01850126       3.50025489       1.90725288       2.31734773       2.93078000       0.02888310      -0.00516748      -0.01067412      -3.95991164
N        3.26179485       8.97348797       5.80698935      -1.81841398      -0.49006482       0.83058614      -0.00209758      -0.01625688      -0.00733289      -9.55932307
N        9.77080750      11.24648490       3.42237327       1.23059646       0.76628123      -0.82073191      -0.01680581      -0.01345477      -0.01843915      -9.05714774
N        5.38072694       7.98308892      -1.39594846      -0.13976085       0.41652444      -0.50742192      -0.02923119      -0.02793959       0.02174803     -10.08143067
N        2.32642427      13.91767107      -4.32683056       0.94267436      -0.32850595       0.39429953      -0.00907922      -0.02683722       0.01187794      -9.24754930
N        6.99789819      14.64060215       1.27449618      -0.76060972      -0.28761534       0.92015814       0.01125913      -0.02776468      -0.02509334      -9.48119330
N       10.59511459       8.95407833      -1.04174004       0.27178826       1.71094472      -0.09904736      -0.01497941      -0.00054383      -0.01941203      -9.03542542
O        8.65802247       8.95197092       1.31338921      -0.94264263      -0.78094627       0.57578880       0.00080355       0.00028955      -0.00837621      -8.91442955
N        7.70463177       6.98256364       5.72405578       1.15114631       1.01374091       1.37207702       0.00556821       0.00362825       0.01522373      -9.27980256
Si       4.23402873      18.48124298       2.78028816      -1.60660145       1.29682066       1.99764089       0.00321139      -0.01447642       0.00913605      -5.53056341
Si       1.40413258      14.91156882       6.19041157      -1.30575993       0.81641450      -1.20315183      -0.00517924       0.00176731       0.01584682      -5.88461262
Si      -4.69017761      21.47327572       5.67659261      -0.41165749       0.11010830       3.74482753       0.01275072       0.00124004      -0.01602826      -5.56008297
Si       4.57577531      16.85657209      -0.11149362       1.02515850       2.35495663      -0.20144785      -0.00427034      -0.01229759      -0.01373264      -5.67599159
Si       6.57643940      18.80583823       0.81618678       1.18928425       0.70074511       0.20060227      -0.01528358      -0.01429731       0.00622526      -5.86883408
Si       7.10161102      12.80897749      -4.81157979      -0.06614327       1.07354077      -1.08257080      -0.00008320      -0.00580499       0.02036488      -4.23396379
N       -3.71990151      21.48335001       1.34905587      -0.20314837       0.05680806       0.19474532      -0.01335867      -0.01025963       0.00988661      -9.59996390
N       -2.16525850      16.72334576      -2.92374267      -0.06069966       1.39532485      -0.51534886       0.00320647       0.00390311       0.01810737      -9.28955436
N       -1.20687973      10.03333174       2.01259603       0.02242717       0.09642703       1.32928476      -0.02152732       0.01839140      -0.01514474      -9.24340129
N        0.36550237      24.51245664       1.99563037       0.50880426      -0.52038684      -0.75176571      -0.00481158       0.00017121      -0.00176129      -9.26929832
N        9.57813596      11.16721707       0.30676270       0.60770442       0.35273917       1.14221497      -0.00129698      -0.00752650       0.01287292      -9.44216323
N        3.03435956      19.64987659       3.12746600      -2.07482615       0.92971545       2.30676474       0.01090720      -0.00717504      -0.01100329      -9.25184560
N       10.43076116      13.55954213     -10.01306849       1.83500741      -0.18944658      -0.72959773      -0.02518560      -0.00174737       0.02378525      -9.27307630
Si      -2.17859038      22.41195597       4.32333288       0.10808663      -1.20349261      -0.93672571       0.01682940      -0.00699464       0.01366737      -6.15227515
Si       4.40441690      12.05030854      11.73594392       1.02419927       0.86186803       2.01215671       0.00552571       0.00003639      -0.00910267      -5.18160588
Si       0.80043837      16.91723577       9.95211868      -0.33015700      -1.10513132      -0.83477267       0.00408189       0.02242267      -0.00680202      -6.00866085
Si      14.71274299      13.01350681      -5.07391794      -2.49577554      -0.37782363       1.68768241       0.01258895      -0.00801200      -0.00118560      -5.69347912
Si       8.61335757      22.69737013       5.56579953       1.68950589      -1.39321530       1.34266539      -0.00836971      -0.00250190      -0.01380872      -5.92321879
Si       5.01777050       8.96108018       2.85925899       1.94027025       0.60946585      -0.42915598      -0.00906158       0.00941953      -0.00358486      -5.86110216
N        4.40764951      15.13223761      -5.90835633       2.09963617       0.12564515      -0.13651133      -0.00717634       0.00325187      -0.00601971      -9.49070716
O       11.53771356       7.49476926      -2.95683580      -0.68604375       2.18387701      -0.19897139       0.01084276      -0.00748608      -0.01527514      -9.00149763
N        5.47175371      10.67505286       5.83433927       0.26741920       0.45048822      -0.48549620       0.01182653      -0.00753473      -0.00590567      -9.42169118
N        0.25101974      18.62476230      10.01249623      -0.47026873      -0.08954440      -0.92349948       0.01779905      -0.02067280       0.00084291      -9.30196595
N        2.43406986      19.20485602       5.90823958      -0.00169716       0.41935561       1.05289537       0.01371998      -0.00551349      -0.02196968      -9.08048654
N        1.60466859      13.79288507      -0.97952820      -2.11114502      -0.44453006       0.95819323       0.01391980       0.02305933      -0.00324881      -9.27019954
Si      14.52266778       8.24800353       0.47949820       1.61914762       1.72869795       0.24831871       0.02081876       0.02920523      -0.01788092      -5.89510447
Si      13.35671695       4.29403954       8.16470323       1.11257050       1.38884283       1.07214763      -0.01251167      -0.00346296      -0.01073736      -5.71707779
Si      13.35520526       5.13289465       5.10725168       0.33643304       1.16877542      -1.16626218      -0.01647818       0.00193933      -0.00804052      -5.77054363
Si      25.21297808       1.36778809      -0.54815665       0.13395179      -1.68751014       1.40884324      -0.00500385      -0.00421882       0.00304134      -5.26304871
Si      14.97352140       6.77274726       3.37701349      -0.68053352       0.79180565      -0.71112883       0.00510216       0.00051457       0.00454655      -6.15592963
Si      20.56918027       6.71659269       4.94080781      -0.90065360       1.05196590       2.18828728      -0.01933557       0.00815742      -0.00202024      -5.16922051
N       17.95621483       8.25059370       6.66320064       1.25080715       0.06354597       0.58456096       0.00002193      -0.00037073      -0.00965169      -9.53103662
N       20.38727061       2.64571592       1.43239100       0.18054899      -1.17826909       0.31820546       0.00039531       0.02414900      -0.00907731      -9.26508641
N       16.96926434       0.00364268       5.53543610       0.13146246       0.05962863      -0.13682650       0.00302604       0.01419467      -0.00075476      -9.36613917