72
Lattice="9.8268 0.0 0.0 -4.913399999999998 8.510258437908922 0.0 0.0 0.0 10.8104" Properties=species:S:1:pos:R:3:spacegroup_kinds:I:1:momenta:R:3:forces:R:3:energies:R:1 spacegroup="P 31 2 1" unit_cell=conventional energy=-562.0639038085938 stress="-0.020553572103381157 0.001021478557959199 0.007994013838469982 0.001021478557959199 -0.023356104269623756 0.010683800093829632 0.007994013838469982 0.010683800093829632 -0.03726826608181" free_energy=-562.0639038085938 pbc="T T T"
Si       7.87471618       3.34482575      -2.91908149        0      -0.39890971       0.27079979      -0.79573814       0.00921781      -0.00904920       0.01691409      -6.17087799
Si       2.11834638       9.32557619      -4.34349004        0       0.26104981      -0.26201121      -0.08462598      -0.02363508       0.01277640      -0.00149748      -6.24426943
Si       3.32648067       1.43827072       4.40101526        0      -0.50905860      -0.12659043      -0.29012122      -0.02736017       0.02305395      -0.00789630      -6.07898766
O       -3.86491419       5.18846895       4.90751804        1       0.18278063       0.23983119      -0.49030930       0.00215697      -0.01262241       0.01723396      -8.71444213
O       10.13842294       8.73618230      10.09120203        1      -0.03054755       0.24705595      -0.55612487       0.00184421       0.00199446       0.00764296      -8.73648727
O        7.56486752      -4.61659821       0.96467601        1      -0.18029225      -0.10224534      -0.45561832       0.01865236       0.00106271      -0.00615354      -8.69343841
O        7.80576569       4.98777818       7.89752412        1       0.06411628      -0.07445420       0.64861642      -0.03577690       0.00331676      -0.01987065      -8.67228973
O        7.13016723       0.70016215       2.62257392        1      -0.28907418       0.07551076      -0.72251852       0.02573681       0.01779774      -0.01476935      -8.56882131
O        4.75901067      -3.43529568       1.27968913        1      -0.25700301       0.08585952      -0.25183761      -0.02796458       0.00407772       0.03874779      -8.67845333
Si      13.77929329       4.80417644       8.43333102        0      -0.67443408      -0.21696337      -0.78953507       0.01687350       0.02236740       0.00195691      -6.19212443
Si       2.31127814       0.29328588       6.82856539        0      -0.40689385       0.06946999      -0.72040748       0.01007467       0.01134928       0.00317384      -6.23491865
Si       6.03799137      -0.73228611      -1.72541232        0      -0.45157414       0.05543931      -0.05593975       0.00916360       0.00782098      -0.00001400      -6.20236355
O       -4.36890776      -3.01469770       3.90022133        1      -0.07558313      -0.96769538       0.09298967       0.00819953      -0.00460282      -0.00189372      -8.74296081
O       -2.32422611      -1.02329098       9.76413078        1      -0.50018459       0.81238119       0.09101075       0.02621941       0.02111146       0.01554596      -8.56292760
O       -3.64840644       0.50277786      15.93443786        1       0.24320242      -0.67699025      -0.09763345      -0.00390077       0.01116751      -0.00575054      -8.51708877
O       11.01433769       4.35286235       6.20643178        1      -0.27042026       0.41587567       0.18918263       0.01755637      -0.00861025       0.00431716      -8.50842369
O       -4.29082160       2.53818128       0.50493273        1      -0.03210212      -0.73429161      -0.34230912      -0.02602559       0.00131449      -0.02403817      -8.62756097
O        1.85151477      -1.22956838       1.53960457        1       0.49729866      -0.41414508      -0.03744671       0.02222154       0.00122707       0.00155813      -8.62589920
Si      15.20950220      -2.40939311       2.39440274        0       0.77268742       0.18085491      -0.31564093      -0.01233040       0.02783734      -0.00266530      -6.18797356
Si      -1.87518875       8.22813727       2.13102240        0      -0.14298545       0.34211567       0.64418319       0.01875890       0.00307035       0.01295464      -6.23507982
Si      -5.30078473       5.68050146      -6.51462355        0       0.36286598       0.89465316      -0.08956396      -0.00281458      -0.02128490       0.00684927      -6.20579630
O        3.74405863       3.81306159      -3.67010172        1      -0.03798153       0.25097644      -0.45689524      -0.01128469      -0.00651594       0.01425414      -8.57936275
O        9.30935026      14.55986126       0.90653001        1      -0.38647741      -0.73632223       0.39207067       0.00335107       0.00104830      -0.02287998      -8.52205932
O       -5.39219426      -1.08705087      -8.38168648        1       0.37750010       0.01468935       0.10423912      -0.01215903       0.00403290       0.00549784      -8.73211420
O        7.06825357       2.43145410       6.78813171        1      -0.17315350       0.21844691      -0.58516183       0.00324737      -0.00204349      -0.00179959      -8.57948768
O        2.28698962      -3.93852922       0.37570225        1      -0.14078405       0.12494948      -0.30186610       0.01422609       0.02577017      -0.01225394      -8.62747705
O       -1.43219044      10.77187792      -1.04593059        1       0.94911240       0.09124501       0.35570495       0.01566736      -0.00888626       0.01097278      -8.55211961
Si       3.76930508       9.73564545      13.20543208        0       0.77820129      -0.74460006      -0.03674280      -0.01465382       0.00976751      -0.01856774      -6.27375132
Si      -4.52783555       7.39944820      11.66200564        0       0.49804358       1.02187111       0.11122668       0.02103125       0.00648286      -0.00339680      -6.24705654
Si       3.24630238       5.23463091       1.70003559        0      -0.29371437      -0.21732982       0.61993637       0.00457788       0.00324430      -0.02253405      -6.22401482
O       -6.52413806       5.51686027       5.33083758        1       0.25490303       0.22136035       0.31775259      -0.00130524       0.01218891       0.01483804      -8.55306756
O        4.26731584       9.17678721       8.63129140        1       0.79328038       0.13481016      -0.00933766       0.02624222      -0.01050402      -0.00242842      -8.59071386
O        9.45388171       1.30516264       3.85849368        1       0.09815982      -0.40916485      -0.17651841      -0.02782494      -0.00240321      -0.03330825      -8.58799303
O        9.93682134       6.50773916      -1.99317795        1      -0.18385242       0.69402066      -0.24159941       0.01136068      -0.00814049       0.00130895      -8.64593256
O        6.33483632      17.02248389       7.66680952        1       0.27270335       0.12758276       0.15345986      -0.00491439       0.01814758       0.00900553      -8.66942441
O        9.39643220       6.42527074       6.24008253        1      -0.12282337       0.56495679      -0.05063540       0.01337430       0.04005679       0.01245467      -8.61535966
Si      10.25882793       1.89563562      -2.19705028        0       0.20166882       0.40638322      -0.34992890      -0.00744184      -0.01643139      -0.00604164      -6.19254690
Si       9.01243468      -0.88161852      -1.70246439        0       0.13658489      -0.56073047       0.03305034       0.01506579       0.01147733      -0.03928671      -6.11629254
Si       3.36641026      -4.23331112       1.54785065        0       0.43657201       0.14867547       1.06093081      -0.00788561      -0.01760358      -0.00201519      -6.21877724
O        6.05951145      -8.64531723      -5.02556910        1       0.05643839      -0.50714045       0.58615075      -0.01395096       0.00646475      -0.01341417      -8.59795320
O        4.57538051       7.26626581       3.96226390        1      -0.21514313       0.00465264      -0.12130463      -0.00046226      -0.01545617      -0.01388290      -8.68273008
O        8.50607976       4.22048834       5.27324685        1       0.41411887       0.25004428       0.34806616      -0.01812682       0.00348715       0.01499452      -8.65358198
O       -7.41146910       0.43890307       3.47055617        1      -0.25642653       0.44570644       0.47349773       0.02446526      -0.01375058      -0.00705827      -8.59857070
O       -2.17004394       4.96175691       2.89558477        1      -0.79325131      -0.09909507       0.46520555       0.00173812      -0.00365254      -0.00556840      -8.65515840
O       17.10633525       2.78110120       9.30770122        1      -0.74037513       0.35350136      -0.48692974      -0.02169829       0.00312984       0.01334651      -8.59461820
Si       7.20304913       4.32022399       4.31349148        0       0.45734713      -1.06635812       0.16669303      -0.00486405      -0.02306992      -0.01359042      -6.16578680
Si      -0.20986174       0.06878210      15.74249741        0       0.32556288       0.32067795      -0.79835147      -0.01239045       0.00809261      -0.02316153      -6.19538218
Si      11.18657915      -4.92138694      -0.51749149        0       0.99807357      -0.47923643       0.35877499       0.00510035       0.00202740       0.02485920      -6.23557574
O       12.38229043       4.64132048       9.28675673        1       0.09556604      -0.93384990      -0.00967299       0.00671747       0.01270989       0.00673272      -8.54352510
O        4.54344900      11.55423906       7.81414598        1       0.17886140      -0.71265178      -0.23700268       0.01394203      -0.00165640       0.00272777      -8.41114366
O        3.72910048      -5.80825847      12.52865102        1       0.33271340      -0.73190360       0.00946529      -0.01888102      -0.00116494       0.02244867      -8.71095550
O        3.39311027       0.87185135      11.86971970        1       0.18941758      -0.13107203       0.78979515       0.01146671       0.00293875       0.01396891      -8.66706598
O        8.46088591      -7.72427631       5.88641350        1       0.27097134       0.69823526       0.21468002       0.02903846      -0.00988380      -0.00688422      -8.58002269
O       13.41414047      -8.28300738      16.90377857        1      -0.38017759      -0.44385032      -0.50457486       0.00816778       0.00438599       0.01129183      -8.51896608
Si      -4.88302090      -3.38005550       5.38042913        0      -0.24631280      -0.01662530       0.41468802      -0.00268940       0.01063869       0.02239995      -6.17484766
Si      -1.11144219       6.34644158       7.72798677        0       0.64971034       0.17936938      -0.50039376       0.00446502       0.00353720       0.02133155      -6.23217922
Si      -3.65274151       1.36816327      -7.05133212        0       0.03675659      -0.25352285       0.73703470       0.00669790      -0.00715251      -0.00736683      -6.15795761
O       10.34812408      -0.97087586     -11.56750422        1      -0.35246916       0.23102794      -0.46242362      -0.00039986      -0.00748488      -0.01637356      -8.44692361
O        2.77844488      16.12076267      -2.99139049        1      -0.83619954       0.13242971       0.06233158      -0.01197997      -0.01169914      -0.01114134      -8.68797719
O       14.34839254       8.72071931      -9.41519489        1      -0.37492342       0.38506992       0.18745127      -0.00418355      -0.01164670       0.00894392      -8.68009555
O       15.06453427       4.40605531     -12.27445991        1      -0.65033948       0.70501623      -0.10472650      -0.00261392      -0.03736718       0.00550079      -8.63052261
O       11.57637838       1.49959204       7.75233609        1       0.27123242      -0.66109633       0.56826984       0.00114916       0.01321787       0.00050126      -8.60170162
O        6.94299418      14.80404491       1.97948808        1       0.15176766       0.42256997       0.09269944      -0.00794780      -0.02829674      -0.01300596      -8.59324300
Si       4.43757657       1.43501466      10.78282574        0      -0.50245600      -0.28989422       0.50741244      -0.00811136      -0.02353367       0.01465194      -6.16571575
Si      12.17490589       3.34236403      -0.55193986        0      -0.37101713      -0.24052485       0.30708761       0.00645536      -0.02166007      -0.01273552      -6.13948876
Si      12.57214091       4.08886365       5.86829021        0      -0.06299223      -0.35396607       0.32662868       0.01726320      -0.00239282      -0.01217498      -6.17847973
O        9.07944822      -2.12433077       8.03150973        1       0.49488488       0.69636276       0.51773233       0.01121803       0.00594494       0.00363439      -8.55275619
O        7.66402084      -5.58703470      15.53496641        1      -0.10146129       0.19911094       0.53703902      -0.02921671      -0.00102723       0.00883843      -8.69515169
O        0.92126942       2.56587821      10.04268722        1      -0.12089322      -0.12841752      -0.19786876      -0.02895289       0.00129703      -0.01482913      -8.67118537
O        9.53209644      10.09616336      14.23191351        1      -0.31715119       0.21799294      -0.22911643       0.00748956      -0.00008808       0.00270866      -8.59962070
O       -3.06884697       2.82803170      14.82709774        1      -0.05492862       0.50512733      -0.47395005       0.00689570      -0.00869559       0.01757675      -8.58559263
O       -0.81989948      -3.73688043       3.01650836        1      -0.16978560      -0.16396658      -0.05468907      -0.04334156      -0.02305734       0.00856405      -8.53079593
