72
Lattice="9.8268 0.0 0.0 -4.913399999999998 8.510258437908922 0.0 0.0 0.0 10.8104" Properties=species:S:1:pos:R:3:spacegroup_kinds:I:1:momenta:R:3:forces:R:3:energies:R:1 spacegroup="P 31 2 1" unit_cell=conventional energy=-561.4716796875 stress="-0.019586538895964622 -0.022768601775169373 -0.00491360342130065 -0.022768601775169373 -0.01819424331188202 0.017185747623443604 -0.00491360342130065 0.017185747623443604 -0.020508399233222008" free_energy=-561.4716796875 pbc="T T T"
Si       4.05000393       2.89505422       2.22609204        0      -0.02649836      -0.51418168       0.39799176       0.00080589      -0.00958887      -0.01340802      -6.16058069
Si       3.78225032      10.31436341     -11.12241805        0       0.26936147      -0.29379545      -0.30661511       0.00124031      -0.02198008       0.00924029      -6.27334362
Si       5.37372533      12.83796475       0.98901544        0      -0.84849625      -0.18282857       0.05400440      -0.01872550       0.00355646       0.01233774      -6.26851565
O        6.63025973       0.28934164      -2.83488183        1      -0.04667199      -0.09536773      -0.24753730       0.03172753       0.00065742       0.01111697      -8.83280838
O       13.90807289     -10.61622877      -6.08768408        1       0.20500260      -0.57556262       0.29792205       0.00578585       0.00792874      -0.00537352      -8.58310783
O        8.92031512     -18.05347125      -3.71693482        1      -0.05249288       0.20667308      -0.95948482      -0.00413655       0.01227999      -0.00059994      -8.66021955
O        8.16722686      12.57030079      -7.72945450        1       0.12982514      -0.35512803       0.57705174       0.00380765      -0.00730400      -0.01879130      -8.61213148
O        7.44897655      20.56650283      -8.14416842        1      -0.20322538      -0.44262141      -0.39707157      -0.00367944       0.01690549      -0.00250362      -8.70960033
O        4.09156175      14.83326686     -16.61692138        1      -0.02885970       0.27217801      -0.19382138       0.02756709      -0.01969980       0.03415458      -8.49275768
Si      14.36845336      -1.18823131       1.46051932        0       0.69308657       0.05522613      -0.01421338       0.03108320       0.01259982      -0.00009058      -6.25978190
Si       1.78335317       4.56788679       3.60924646        0      -0.07913130      -0.55253847       0.08084238       0.01988425      -0.00075904       0.00494606      -6.11361080
Si      -2.45806487      -7.16059753      -5.46626164        0      -0.25603421       0.52836702      -0.71934070       0.00956247       0.02532913       0.00856653      -6.14209849
O       17.01702199       9.90228165      14.48489093        1      -0.08166443      -0.05276946       0.90766467       0.00071220       0.01222260       0.00793269      -8.50006139
O       13.15500072       1.91775879      11.93980508        1      -0.18229082       0.30873996       0.11676834      -0.01110030      -0.00116773       0.00285242      -8.59656656
O       -3.43800551       6.21934431      16.93252354        1       0.43750024      -0.14969078      -0.58819839       0.00128457      -0.01753399       0.01067048      -8.74329460
O       12.33022106     -15.95029495       9.63385965        1       0.23140046      -0.29847865       0.34931644       0.03862891      -0.01129493       0.01834658      -8.50816190
O        1.43756915       4.06210526       5.11041960        1      -0.59760473      -0.52810911       0.68627726      -0.03765154       0.00559684      -0.00908654      -8.58064067
O       15.82077867      -0.56494889       1.83092236        1      -0.43764444      -0.07983340      -0.17081846       0.01163518      -0.00616358      -0.03811084      -8.52925098
Si     -14.49380264      11.64222780      -5.07749712        0      -0.29799595       0.03066306      -0.94286502      -0.01473492       0.00555307       0.02711349      -6.14990669
Si      -7.05464833      10.95137601       3.85479684        0       1.48904440       0.02545952      -0.03114395       0.01049699      -0.01371352      -0.00336573      -6.24726301
Si     -13.43200881       8.65289151      -0.53612395        0       0.20347405       0.48257045      -0.05157127      -0.00494888      -0.01178923      -0.02255689      -6.20763117
O       -7.05019381      -3.69419121      -1.82449758        1      -0.83569279       0.49774903      -0.26921388      -0.01992042      -0.01061501      -0.02539536      -8.49110544
O       10.07307518      13.38153223       9.39637793        1      -0.86747084      -0.32499254      -0.68285365       0.01944970       0.02066793      -0.00954604      -8.61855543
O       10.05456458      12.14138892       1.28320306        1      -0.12402661       0.78043834      -0.52307134       0.00164040       0.02041522      -0.00385256      -8.44702804
O       -0.32001221       5.74110012      11.96568936        1       0.23959442      -0.93738888       0.12548995       0.00641930       0.02344158       0.00579208      -8.57207620
O        6.95881643       5.27764461       0.60378836        1      -0.45406773       0.05428464       0.00842892       0.01682332       0.01524077      -0.01087410      -8.57291353
O       -4.11098252      12.39605883       2.50792513        1       0.43505131      -0.02186620      -0.22766627      -0.01250324      -0.01098433       0.01302590      -8.48174036
Si      -4.62489606       1.62203415      -6.05360670        0       0.38443366       0.36510404      -0.18714560      -0.00621944      -0.01113520       0.00435140      -6.17567784
Si       1.34454821      10.18943898       8.74722718        0       0.53056715      -0.05918675       0.04433718       0.00773781       0.00759049       0.01172768      -6.14562279
Si      -0.16456273      -2.21726678     -15.41903181        0       0.24232660       0.28636913      -0.28039345      -0.00625896      -0.00319745       0.01200877      -6.21500975
O       -3.75941847      -6.65811928       6.20068660        1      -0.87448725      -0.03673037      -0.43027166      -0.00885713      -0.00475779      -0.01718165      -8.65958822
O        3.62000856      -9.86121769       2.16842313        1      -0.06901369      -0.61701114      -0.01772207       0.00817378       0.01609439      -0.00374201      -8.69354475
O       -0.69367998       3.85144237      -3.96329969        1      -0.81037960      -0.49898096       0.35287569      -0.02663639       0.02227493       0.00966722      -8.77160299
O        2.98052962       9.38975678       0.74797921        1      -0.55628603      -0.30475160      -0.20670436       0.01213054      -0.01813549       0.00584947      -8.66669977
O        0.84243208      14.05369317      -7.88752029        1      -0.37573296       0.17592194       0.07529225      -0.00170292      -0.01249819       0.01583714      -8.65571058
O       -3.41244429      14.69574638       3.78852446        1      -0.02200968      -0.05264051      -0.32801952      -0.02581786      -0.00275469       0.00892350      -8.50677717
Si      11.83521946       0.11917382       2.63047959        0       0.46057316       0.47221135      -0.02429358       0.01799370      -0.00521617       0.01546776      -6.10114342
Si       9.65741000      -1.76337027       3.28727298        0      -0.59154002      -0.64958858       0.31165079       0.00534969      -0.00624626      -0.01271249      -6.25098044
Si      -7.21692491      -8.56811286       2.01154923        0       1.41594504       0.03319302      -0.05417840      -0.00758415      -0.02052335      -0.01272381      -6.27864128
O       15.56816378       7.99004857       3.54074920        1      -0.50938827       0.15618901      -0.28656421      -0.00275954       0.01119121       0.00794254      -8.47675645
O        4.32412825       4.85832163      -4.00289168        1      -0.11342157       0.06928893      -0.21938499       0.00106261      -0.00699213       0.00344364      -8.50645721
O       14.73297127       1.90496175       3.18025198        1       0.43979963      -0.40468734      -0.17892545      -0.00653284       0.00202163       0.00616534      -8.49596107
O        4.85120504       9.33665747      -1.04190212        1       0.02718991       0.08058426       0.57994604       0.00449988       0.00822030      -0.03343785      -8.68762529
O        3.79281844      -2.00667644      -3.32162350        1       0.04171710       0.15609026       0.21282621      -0.01016083      -0.00728670      -0.01477100      -8.59086263
O        5.20804506       1.58120021      -0.82212842        1       0.07876803      -0.09601254      -0.24535063       0.01039815      -0.02269514       0.02757940      -8.68230140
Si      13.64160673       1.08681378      21.40178145        0       0.37041598       0.44548223       0.14278207       0.01356517      -0.01508170       0.03230345      -6.09066778
Si      -1.93222378       6.84261764       6.11339256        0      -0.48445556      -0.58210730      -0.38390579      -0.00749460       0.01182851      -0.00819434      -6.10937935
Si      12.26802495      -9.64618907       7.62337423        0       0.07339506       0.41448609       0.39475924      -0.02048466      -0.03010753      -0.02533505      -6.19007021
O        4.06064246      -0.49821124      10.88849798        1       0.93756090       0.54143389      -0.77135345       0.00141777       0.00094491       0.02556885      -8.56771266
O       14.32609697      -5.39223420      11.14711915        1       0.01142688      -0.61959759       0.59717999      -0.01633202       0.00191619      -0.01307597      -8.61593711
O       12.57233018      -0.10279907      -4.85938201        1       0.08998939       0.29748650      -0.55075885      -0.01405334       0.00016315      -0.00086734      -8.61369741
O       10.38824056      11.25393680      -3.02094481        1      -0.13083940      -0.22343317       0.90400061      -0.00570682       0.00833957       0.00607784      -8.61340225
O        5.52232282       0.03306209      -5.89961202        1      -0.76445612      -0.12810293      -0.10867486      -0.00122366      -0.01352592       0.02492638      -8.54499900
O        6.25352234       8.71729268       1.12380295        1      -0.17833203       0.56944136       0.67964849      -0.01540448      -0.00010502      -0.00761501      -8.61698186
Si       6.37317770       4.48807096      -8.93106516        0       0.23103380       0.64372557       0.32312107       0.00648508       0.02488210      -0.00822310      -6.23613459
Si      11.46627620      14.05946404      -0.94368054        0      -0.10335033       1.72142143       0.24860823       0.00889221      -0.01226801      -0.00089929      -6.25466353
Si      13.88433903      -3.53127068      -2.78171584        0       1.02431831       0.41504044      -0.06223997      -0.01661429       0.00137094       0.00329167      -6.12516409
O        2.72575887      -6.25350340      -1.45023440        1      -0.00608592      -0.50009029      -0.02406622       0.02441537       0.02786884      -0.00943749      -8.58529890
O       12.80678120       3.76207257      -2.09228906        1       0.08855413       0.10705428       0.63625044      -0.00721420      -0.01950809       0.00850285      -8.57812202
O        6.78132980      13.13237479      21.79874218        1      -0.05432554      -0.59327061      -0.36375223       0.00565904      -0.01277407       0.01037189      -8.65234125
O        7.39061600      14.93569343      -1.84165837        1      -0.37212904      -0.58032922       0.09810834       0.00030430       0.01975258       0.03152029      -8.73122871
O       -5.62661156      11.19592021      -6.28224712        1       0.31589367       0.22081649       0.36696454       0.00064401       0.00518234       0.00932893      -8.62380159
O       -7.03374868       9.41345554      -7.50223435        1       0.09118617       0.06027173       0.63003625       0.01220939      -0.00102921      -0.03654548      -8.61947763
Si      14.33697982       4.01344367       8.16996779        0       0.04983256      -0.07246076      -0.12562959      -0.00985266       0.00761799       0.01357269      -6.23627239
Si       5.64026820      -1.58445323       5.04521665        0       0.07338370       0.63327261      -0.09027400      -0.01342260       0.00783069      -0.02254998      -6.19569403
Si       2.01062029       4.90636008      -1.43089026        0      -0.18113784      -0.11722844       0.05245692      -0.00843390      -0.00826741      -0.00808698      -6.18399006
O        6.54431247       2.50866094      15.85057022        1      -0.51940521       0.16146087      -0.04705852      -0.01160712      -0.00653816       0.02003914      -8.59008110
O        3.88522346      19.14449143       5.59147036        1       0.01831692      -0.79631489      -0.01332045       0.00116895       0.02693862      -0.00948535      -8.50323761
O        6.46507584      -1.85125596       6.43984035        1      -0.13150589       0.27781414       0.49051766      -0.02260499      -0.00010300      -0.02568175      -8.57301462
O        1.44118337      -1.36024134       9.69202874        1       0.26260996       0.36811536       0.38124776       0.00514960      -0.02283411      -0.00058212      -8.69559419
O       13.20680307      -0.78900722       2.55802416        1       0.14025393       0.44916035       0.21925018       0.02250564      -0.01190969      -0.02271442      -8.50775325
O       15.22148091      -3.71811320       8.88286480        1       0.53531721      -0.02610939      -0.01814402      -0.00793820       0.02366069      -0.02314547      -8.70126092
