72
Lattice="9.8268 0.0 0.0 -4.913399999999998 8.510258437908922 0.0 0.0 0.0 10.8104" Properties=species:S:1:pos:R:3:spacegroup_kinds:I:1:momenta:R:3:forces:R:3:energies:R:1 spacegroup="P 31 2 1" unit_cell=conventional energy=-559.7732543945312 stress="-0.02854270301759243 0.00869867205619812 -0.0033549729268997908 0.00869867205619812 -0.003705455455929041 0.0024746055714786053 -0.0033549729268997908 0.0024746055714786053 -0.04355175420641899" free_energy=-559.7732543945312 pbc="T T T"
Si      -2.28187308       0.07047984       6.35950694        0      -0.52372752       1.02223099       0.12586784      -0.00137833      -0.00458875       0.00108781      -6.22326809
Si      -0.36571368      -4.29615855       9.34847456        0       0.19370871      -0.70490513      -0.46258921       0.02456097       0.02097849      -0.00134492      -6.24273831
Si      -5.48166660      10.20156003      -1.32713684        0      -0.49240548      -0.24731538      -0.35556594       0.01066712       0.00251064       0.00699405      -6.09883314
O       -7.38459323       7.84097854       7.81116451        1       0.43382911       0.71883896       0.05289619       0.02999141      -0.01335885       0.00924546      -8.74653995
O       15.55191437       2.45742023       4.38790843        1      -0.57799951      -0.01023633      -0.09238999      -0.00770427      -0.00682365       0.00772756      -8.63768613
O      -13.53747280       8.44555894       4.10477136        1       0.01808372       0.01133137       0.75683870       0.01025602       0.00007121      -0.01311144      -8.47783840
O       -2.47945811       1.68930297       6.49441931        1       0.01323592      -0.57400866       0.01530008       0.03801909       0.00535810      -0.00313032      -8.44128788
O      -15.45331442       6.30330175       1.19914646        1      -0.29745824      -0.54852655       0.23782445       0.01844761      -0.00889061      -0.00421121      -8.68925560
O        2.94004811       0.64175134      -1.98306532        1       0.35858680       0.52075889       0.00156903       0.00630637       0.00009781      -0.01362097      -8.54909980
Si       3.21951536       0.99609564      12.22409853        0       0.65922650       0.27786628       0.08502109      -0.01521061       0.00144077       0.00612686      -6.15362698
Si       7.93888601       6.36724301      11.85690008        0      -0.17518156       0.04177788      -0.98313076      -0.00946623       0.00584351       0.00666950      -6.15434939
Si       8.36230229      -1.42164219       2.41926119        0      -0.41400856       0.16223402       0.88702918       0.00118038      -0.01527277      -0.00847766      -6.17876726
O       -0.60249555      -7.28917007      13.38344394        1       0.63981863      -0.22158384      -0.00590520      -0.00643870      -0.01066297      -0.01638199      -8.53595436
O       13.24614649      -3.53058976       7.75017438        1       0.51225465      -0.16781231      -0.05213268       0.00309569       0.01164176      -0.00082436      -8.52463710
O        0.78930809       2.04862066      -0.43808033        1       0.02025978       0.62429204      -0.11701252      -0.00836431       0.00192302       0.00069320      -8.61231935
O       -5.42664664     -18.50093098      -4.08088047        1       0.51222903       0.23171880       0.42327300      -0.00085580       0.00879438      -0.00558648      -8.55730569
O       -0.54503827       6.12077891      12.72937300        1       0.31194301       0.23851438      -0.20304173       0.00711948       0.00514352      -0.01457566      -8.73179328
O       -5.59534475      11.18939331      12.31087600        1       0.12251946      -0.14346657      -0.49622369      -0.00249082       0.01528042      -0.03017828      -8.64072549
Si       1.77012621       5.15283452      -0.59666413        0       0.25539298       0.06895101       1.11906991      -0.01169579      -0.00795843       0.01210654      -5.75968748
Si      -4.51308414       2.46977592       2.83729198        0      -1.51353450       0.16792958      -0.03102737      -0.02095435      -0.00227136       0.00138932      -6.22042328
Si      -3.09766032       9.74195742       7.78748813        0       0.84312774       0.25801434       0.53347331      -0.01352783       0.00772922       0.00952882      -6.28532892
O        5.87834300       3.78978274       6.58581650        1      -0.04435805       0.37507870      -0.04043482      -0.01679087       0.02103579      -0.00587417      -8.45184982
O        4.62480428       5.33174668       8.17824706        1      -0.44388876      -0.26232344      -0.12375726       0.00757901      -0.01180658      -0.01963592      -8.68206251
O       13.28109136       8.70706457       2.25648080        1       0.11023224       0.67833128       0.19402821      -0.01898028      -0.00334421      -0.01469265      -8.78327405
O      -12.78318248       8.81588774       6.47428112        1       0.40990477      -0.56068918       0.02147362      -0.00607133      -0.00177938       0.00876671      -8.54245794
O       -2.11410271      -9.03986251       1.03753942        1       0.05897694      -0.52370396       0.56516144       0.00159646       0.00398339       0.01083344      -8.83421171
O       -1.21416483       4.83332915       5.16085855        1      -0.24268887      -0.53989695       0.11258830      -0.01533973       0.00155844      -0.00067067      -8.60712421
Si       2.00582649       3.54940962       6.06807015        0       0.83739482      -0.12163570       0.10102120       0.02454950      -0.01004693      -0.01413271      -6.47415739
Si       1.00561528      10.82721081       5.99666194        0      -0.17152900      -0.34398485       0.26529846       0.00710671      -0.00135104       0.02377965      -6.17622381
Si     -19.48769407      15.95100124       4.89021525        0      -0.62371162      -0.74688685      -0.73725515       0.00650152       0.01053334       0.01770799      -6.25319725
O        5.52486585       0.24475120     -12.11144738        1       0.00436685      -0.11613039      -0.43049516      -0.00142630       0.00052217       0.00965247      -8.66821754
O      -11.01901480       8.36861518      15.39728049        1      -0.62553053       0.16170202       0.11867790       0.00823021      -0.00669500       0.02574873      -8.38645303
O        4.82618135      18.21940694       6.55691682        1       0.38579926       0.29608173      -0.27709643      -0.02059785      -0.00650457      -0.00795919      -8.58142269
O        2.03394217       6.73785076      10.26457028        1      -0.41816888       0.20754306      -0.07250200       0.01000428       0.00080577       0.01837562      -8.70434749
O      -16.25024280      21.54446634       5.88661240        1      -0.03788033      -0.60019189      -0.32313363       0.00680095      -0.00978321       0.02224517      -8.17760408
O       -9.35296631       2.80337832      16.44317480        1      -0.84101375       0.04284295       0.65213985      -0.00164068       0.00917533       0.00125974      -7.99770916
Si       4.43059175      -3.09496697       6.53247116        0       0.05470970       0.28126011       0.06019751      -0.00159791       0.01524518      -0.00335894      -6.25644499
Si       7.01143088      -0.38137932       9.37213323        0       0.73056322       0.23743955       0.67936064       0.01195373       0.01367797       0.01012744      -6.20228678
Si       4.79469606       4.99418796      17.37549126        0       0.52828204       0.55737111       0.35869790      -0.01259033       0.00801171      -0.00484699      -6.33946520
O       -1.62106925       0.54700624      10.00843912        1       0.78577056      -0.41984259       0.32509377       0.00811473       0.02545300       0.00005373      -8.73550022
O        7.94909451      -4.26615423       9.96700553        1      -0.21117360       0.05263602      -0.20765097       0.01824081       0.01838988      -0.01409170      -8.51960123
O        2.67335550       2.35162797       4.89110909        1       0.72798685       0.46115637       0.21780995       0.01036464       0.00191483       0.01938635      -7.85714710
O        4.73209368       3.91122562       2.31107201        1      -0.27449740      -0.26878044       0.15091023       0.00705937      -0.00704248      -0.02150960      -8.67973268
O       -3.44248989      -0.47621197       5.30780491        1      -0.41981228      -0.02685576      -0.48082358       0.02656999      -0.01890200       0.00055373      -8.60685432
O       -1.38922862       2.39810376       3.89600419        1       0.31631981      -0.14279339       0.50943940      -0.00901094      -0.00172064      -0.00026319      -8.63429248
Si      -0.61844077      -7.20943235      20.25345986        0       0.11189834      -0.49955001      -0.35275354      -0.00413689       0.00942165       0.00780194      -6.27367932
Si       3.21907704      10.30519591      13.23580950        0      -0.08953518      -0.29795234      -0.57373523      -0.00139772       0.01291688      -0.01363295      -6.13992077
Si       5.71241966      -3.12407953       2.34191877        0       0.33888895       0.70009848       0.51496179       0.00032558      -0.01773995      -0.02214152      -5.79167229
O        5.13453684       9.61049969       8.19841321        1      -0.48714380      -0.13476858       0.09732461      -0.01693030       0.01028179       0.00133646      -8.55796230
O        6.82424642      -6.63629748      12.71872332        1      -0.61173173       0.17957006       0.11688041      -0.00092566       0.01203111      -0.01428811      -8.60724437
O       15.36096645     -21.31524905      14.22442723        1      -0.64978292      -0.68096178      -0.72688991      -0.00067826      -0.00744742       0.00085700      -8.74633253
O       15.82757478      13.48771648       6.49342227        1      -0.38607795      -0.02629895       0.14539588      -0.00478131       0.00055271      -0.00790387      -8.04677093
O        6.84539986      -2.02076558      13.32412746        1       0.08203020      -0.13189992       0.23866906      -0.02338591       0.01392667       0.00717059      -8.71004570
O       -0.83498454      -0.15701568       5.75919609        1      -0.53942037       0.85792082      -0.71151253       0.01019281      -0.00142075       0.01529129      -8.52912128
Si       4.48571557      -4.97359760       4.54019840        0       0.43889521       0.30358106      -0.19342388      -0.00873120       0.00115936       0.00201857      -6.18138987
Si       0.84632315       2.68204551       1.03252370        0       0.50674387       0.07094452       0.09832169      -0.00005298      -0.01161623      -0.00835276      -5.72887665
Si       3.79931468      13.15945728      -1.54368069        0      -0.24591065       0.29897778      -0.42361178      -0.01652175      -0.01656296       0.00366054      -6.14702231
O        5.58037627       6.23301189      -4.95918528        1       0.13466415      -0.11842750      -0.17186138      -0.00815156      -0.00415587       0.00366667      -8.61312425
O       -0.69377774      -1.84908988      14.56377340        1      -0.42445846       0.29353281       0.50924228       0.02788182      -0.00656426       0.00000432      -8.65926349
O       10.33837605      21.81701352      -1.48539147        1       0.72158076       0.24377355      -0.36816539      -0.00775319       0.01263487      -0.00670397      -8.63473356
O       11.10128581      21.43485686      11.76942520        1       0.05273803      -0.39228661      -0.55385347      -0.01575129       0.00462808      -0.00226110      -9.50066602
O        8.11998176       5.69710579      21.18462857        1       0.25394120      -0.22612516       0.68000495      -0.01655531       0.01188999      -0.00656436      -8.77184713
O       -1.04052777      10.23798538      10.95082080        1      -0.21904555      -0.02895215       0.51711729      -0.00218670      -0.02651881       0.01398588      -8.55285966
Si       9.72619950       8.24915591      -5.03898082        0      -0.31928657      -0.65525318      -0.37069648       0.03715107      -0.00859725      -0.01067945      -6.08153826
Si      -4.54075006       5.07470567      12.11270447        0      -0.17698243      -0.34686424      -0.68145770      -0.00786174      -0.01427941       0.00062914      -6.23238045
Si      -2.53969677       9.26233317      15.75916336        0      -0.04122178      -0.27266850       0.34953455       0.01266272      -0.00867182       0.01292039      -6.20900065
O       14.66442574       2.70564270       8.82301442        1       0.10786645      -0.08064909      -0.23161741      -0.00391557       0.01172996       0.00587052      -8.51594675
O        1.80318540      14.15823151      12.64509676        1       0.13996352       0.23947989       0.16038757      -0.00964767      -0.01227821      -0.02580192      -8.76330745
O       -1.45926427       3.06557253       9.47758904        1      -0.19953915      -0.11138233      -0.49310435       0.00883089      -0.01499394       0.00935435      -8.56845176
O        2.21700792       2.78580846      18.34090325        1      -0.61883722      -0.01649971      -0.03851889      -0.01752068       0.00389224      -0.00019515      -8.30697572
O       11.55965628      10.68278304       1.93452727        1       0.70961238      -0.20068024      -0.57911859      -0.00877538      -0.01349591       0.00467193      -8.62250841
O        0.62354219      13.05179436      10.59463652        1      -0.08580392       0.62900850      -0.03541616      -0.02356893      -0.00904086       0.01770524      -8.66742647
