72
Lattice="9.8268 0.0 0.0 -4.913399999999998 8.510258437908922 0.0 0.0 0.0 10.8104" Properties=species:S:1:pos:R:3:spacegroup_kinds:I:1:momenta:R:3:forces:R:3:energies:R:1 spacegroup="P 31 2 1" unit_cell=conventional energy=-557.1354370117188 stress="-0.003320115152746439 0.003827608423307538 -0.016520800068974495 0.003827608423307538 0.013660137541592121 -0.009959393180906773 -0.016520800068974495 -0.009959393180906773 -0.014408206567168236" free_energy=-557.1354370117188 pbc="T T T"
Si       4.12578643       1.79945895       0.83975169        0       2.11734258      -2.76879496      -0.39683394       0.00859355      -0.02307750      -0.00222303      -6.24722964
Si       3.57570039       3.00635968       3.63189056        0      -0.94026619      -0.91316377       0.40730943       0.02583706       0.00046939      -0.01354606      -6.24585158
Si      13.32923848       8.76468323      -0.94124110        0       0.04003644      -0.64902514       0.85427985      -0.00371534      -0.00558398       0.00421762      -5.94797570
O        8.22792680       1.80636828      -0.39629901        1       1.27042626       4.17992692       2.42924700      -0.00526772       0.00394373       0.00049867      -8.57734811
O       -4.30303289       0.96920200       0.63360336        1       1.54255878      -2.12731967       1.69631012      -0.01053408       0.00432973      -0.00384605      -8.56305873
O       15.25620109      -4.51806076      -0.12117590        1      -1.14057002       4.23337978       0.94499687      -0.02640584       0.00637235       0.03792938      -9.24339330
O        0.99996590       5.41746963       4.74392569        1       1.43003462       1.71767890       0.40621196      -0.00069042       0.02528499       0.00669456      -8.54625595
O       -0.24388258       3.14538662       5.00411906        1       3.01526826      -0.58712533       1.83861113      -0.00867064      -0.03345501      -0.02173851      -8.34380901
O        0.78967489       8.12684652      -5.53387688        1      -0.39828016       0.28656593      -1.40574193      -0.00501681      -0.02882738      -0.02552743      -8.59685981
Si      13.25088689      -3.31950616       7.83611008        0      -3.96094585      -0.94557948       2.26451956      -0.01122442      -0.00581159       0.00696619      -6.20330960
Si      -3.42427528       3.08559737       6.93045603        0      -1.15131157       3.10312397       2.46203227       0.00891286      -0.02005482      -0.00399104      -6.17850310
Si      10.93302702       8.27752427      12.41657463        0       2.18309896      -2.41142802       0.83220827      -0.04280642      -0.01161507      -0.01939990      -6.20350319
O        3.15344121       6.85969087       4.92576077        1      -2.26120097       0.09420415      -0.28391585      -0.02145539      -0.00647310      -0.01132618      -8.55290210
O        7.10057649       4.14104758       8.00671979        1      -1.05538161      -1.17015833      -1.42622204       0.00506520      -0.01511944      -0.00176853      -8.64088762
O       10.70325359      -2.02979704       4.81706812        1       0.79431847      -1.81921795      -4.14156258      -0.00812209      -0.00835638       0.00672041      -8.48513925
O        9.72610290       4.32270592       8.11559380        1      -0.48231023       4.90664731       1.33752412      -0.01538885      -0.00230966       0.00463074      -8.66902244
O        9.63785737       0.56285100       8.86726760        1      -3.18895318      -1.39385861       0.63841585       0.00664519      -0.00630769       0.00842935      -8.41667211
O       11.78797118       2.99663136       3.73234399        1       1.45931756      -1.65001865       3.56038446       0.00882744       0.00851648      -0.02206971      -8.64027536
Si       2.59926237      -0.68193198      -2.02025194        0       2.55262902       4.18070012       2.64798548      -0.01979649      -0.01967566      -0.00326409      -6.19578940
Si      -6.10203372       2.24458047       8.67440968        0      -0.31742931       2.11857149      -0.12688879       0.02625161       0.01773163       0.01333442      -6.07228953
Si       1.85103876      -0.40450632       0.98051898        0      -0.03933499      -2.71469173       1.32503011       0.02378165      -0.01377368      -0.00913533      -6.22865540
O       -3.33692700       7.74512619      -3.29365492        1      -0.89014540      -1.94900638      -1.35159171      -0.01201512       0.01497714      -0.00002903      -8.69994819
O        8.18477132       5.94900859       6.41236369        1       1.33036023       0.67742756       0.97572164      -0.01207919       0.00439386       0.00989178      -8.52862489
O        7.50104324       1.94389462       6.52495972        1      -2.31286887      -0.21497276       2.21313074      -0.00089858      -0.00852600      -0.03105831      -8.11098659
O        5.32166448      -3.90029360       2.44842375        1       3.39117528      -0.52910123      -1.35437128      -0.02464885      -0.02601191      -0.03086776      -8.38908422
O       -1.80703525      -9.18711230       4.60477602        1       0.24945585       4.78847793      -3.81875828       0.01342992      -0.02223636      -0.02404524      -8.65198410
O       -0.82937740      11.33214891       2.09114618        1      -3.08659253      -0.96962250      -1.67838373       0.01215600       0.01238963      -0.01962206      -8.46012962
Si       6.03629504      -3.31079893      11.94822103        0       1.56349371       0.68777691      -2.70354621       0.03005639       0.01572967       0.02215159      -5.78450209
Si      -3.18047425       5.10824890      12.15426856        0       2.07768522       3.99616484      -0.75988335       0.00920755       0.01208896      -0.01978463      -6.22822577
Si      -4.88553510       8.26079965      -3.35125932        0       2.94679667      -4.73333480       0.31076956      -0.00364098       0.00364369       0.00204664      -6.22825438
O       13.82903709       4.46967864      15.01927152        1      -2.43322034       0.94688858      -0.25244764       0.02635804       0.00310414      -0.00247765      -8.54742897
O       -1.36367240       9.13530444       8.55500138        1       0.59420374      -0.60091328       1.40862142      -0.02075022       0.00406918       0.00529429      -8.81432855
O        6.68871342       7.90933850      10.18462488        1      -4.29217884      -1.55427165       1.25908058      -0.01004845      -0.01482324      -0.00046399      -8.58363950
O        7.95083906       5.13008580      14.88762330        1      -1.06855715      -1.22961387       2.06953576       0.00854728       0.00686681      -0.00835109      -8.33694160
O        3.44998624      -2.08116881      -1.90138626        1      -2.66624949       0.61557584      -3.38462235       0.02222376      -0.00070800       0.01038472      -8.60313594
O       11.95945581       5.50486914       9.24019614        1      -0.60960507       0.24886033       1.15708929       0.00001873       0.02961214      -0.01403148      -8.72483099
Si       3.75512538      -6.78292067       5.20915658        0      -0.69655417      -0.26088427       3.06045486      -0.02444045       0.00606635       0.04291040      -6.49237210
Si      10.53069001       4.00360690      -6.80258581        0       0.46090585      -4.08996344      -1.44588614      -0.00241558       0.01080841       0.03272986      -6.15652710
Si       7.38490937      -1.71107580      -2.54583514        0      -2.47265658       0.93676747      -2.92039042       0.00271672      -0.00667131      -0.01355772      -6.07561308
O        8.69178807      -1.12048696      -0.01917499        1       2.29338025       0.94124217       1.10943605       0.00063285      -0.01184095       0.01457176      -8.37910736
O       12.35647203      -6.23355114      14.84835189        1       1.71729934      -2.94705514      -2.66776130       0.03714347       0.00148739       0.02271998      -8.01579273
O        9.09919630      10.25245115       4.49111030        1       2.57063497      -0.46917945       1.17426886       0.00178024      -0.01681819       0.01023486      -8.76006544
O       10.29136258       0.18829523       1.57320816        1       3.00142840      -2.70905998      -0.89636480       0.04090747      -0.00577241      -0.00159692      -8.42333782
O       -0.92123816      15.40700498      -3.15555859        1      -3.01291701       0.14438954      -2.92444195      -0.01022033       0.00594556       0.00995854      -8.68082893
O       -0.62772110      -2.02533410       2.55661958        1       1.05188253       0.09965293       2.65802961      -0.01706508       0.00815329       0.01096690      -8.49355781
Si       8.90932499      -2.40697353      11.79372871        0       0.46824594      -1.60687321       1.49706851      -0.00500953       0.00255089       0.00387781      -6.16335684
Si      12.35113593      -2.13647440       5.02102167        0       2.09822780      -2.58374361      -1.45953923       0.00327874      -0.00721852      -0.00673898      -6.15212876
Si      11.44199798       6.72862687       5.44233499        0       1.00715145       3.84285425       0.38276468       0.00800432       0.02488442      -0.00109246      -6.24160963
O        3.96847757       2.61247770      10.25300642        1      -1.27098687      -1.73799166      -2.51037145      -0.00454335       0.03012942       0.01602644      -8.64534080
O       12.71181130      12.82903194       0.46965269        1      -0.73679246       4.71930021       1.82017725      -0.00527827       0.01470307       0.01269306      -8.68772686
O        5.75352994      -1.71907622       0.89980704        1      -0.27392576       0.45063292      -1.42338713       0.00312293      -0.01945476      -0.01525827      -8.54119384
O        7.64086341      -3.45028635       1.04949956        1       0.96428038       2.11194991       0.80894547       0.03885873      -0.01208101      -0.02127728      -8.51384771
O       10.20819254      -3.22905806      11.24068185        1       0.50292393      -1.39526269       0.68429679      -0.00680813       0.01103757       0.03614488      -8.48017919
O       18.94261740       2.39302740       1.88735729        1       0.63851412       1.69732091      -4.14605397      -0.00310370      -0.00154009       0.00597292      -8.52625120
Si       3.88705821      -5.45026963       0.46066785        0       1.80220008      -1.62590411       1.50816965       0.01448113       0.02244270      -0.00735070      -5.62087923
Si       4.09912797       9.32103752       2.39614211        0       1.13072997      -1.76220932       3.13442649       0.01160018      -0.03495562      -0.01354396      -6.26798111
Si       6.94823487       3.80325803       4.08435132        0      -2.45526294       0.36055844       2.37207456       0.02995625      -0.01022661       0.00162143      -5.97909886
O       -0.58460473       0.68509440       3.96212333        1       0.07746261       1.30487914       1.76161485       0.00111700       0.04369479       0.01113117      -8.00608099
O       11.17601412      12.67504113      13.42980627        1      -2.41294521      -1.06145694      -4.23154991       0.00716616      -0.00717958      -0.01309615      -8.42818010
O        7.15346708       6.64803438      12.46416044        1       3.79549938       0.96772201       4.89087776       0.01944062       0.01911648      -0.00589651      -8.58647907
O        9.86758903      11.18842057      -3.13793896        1       0.58546421       0.75610692      -1.53638455       0.01005143       0.01550905      -0.01931459      -8.81736314
O       -9.71463539       8.27225007       2.86092327        1      -2.30765775       3.65267207      -2.67642227      -0.01407959      -0.01887046       0.01566003      -8.61589944
O       -2.68464116      11.50319089      -2.37442380        1      -3.11350640      -1.76699873      -0.46705460      -0.02359574      -0.00570290       0.01427582      -8.77831829
Si       4.34770404       6.06787610      14.95620999        0       1.22762059       1.36274630      -4.20417596      -0.02060155       0.00109689       0.00015323      -6.25562435
Si      -0.42607025       8.65361847       4.33715072        0       0.01613710      -1.66285938      -1.01294638       0.00658404       0.01610355       0.02537123      -6.25260454
Si      15.98001422      12.67093796       8.99664004        0      -0.39914064      -1.30749981      -0.92971798      -0.01551570       0.02540406      -0.01114523      -5.69642597
O       12.48015329       8.62471875       1.96998972        1       0.48545010       2.77461207       0.55843287      -0.03151748      -0.00884187      -0.00700703      -8.48708475
O        6.39433013      -2.00604515      17.84978669        1       1.06768458      -2.02604543       0.29832717      -0.01724473       0.01518353       0.00283056      -8.66035068
O        2.17842532       8.22245687      19.85861403        1       3.01446337      -2.01097894      -0.35024139      -0.00279763       0.00418720       0.00109264      -8.50653446
O       14.50693027       9.26351762       6.26202210        1      -3.36962068      -0.25665800       0.61932684       0.03795113      -0.01959637      -0.00180203      -8.08253706
O        7.87890348       9.23936156       1.21946340        1      -1.96533739       0.85205064      -1.20307436      -0.01977874       0.00684661      -0.02058170      -8.64199293
O        6.12389007       3.91768735      16.33764922        1       0.12046340      -1.83627277      -1.27150998      -0.02351391       0.00063974       0.01769381      -8.53236568
