72
Lattice="9.8268 0.0 0.0 -4.913399999999998 8.510258437908922 0.0 0.0 0.0 10.8104" Properties=species:S:1:pos:R:3:spacegroup_kinds:I:1:momenta:R:3:forces:R:3:energies:R:1 spacegroup="P 31 2 1" unit_cell=conventional energy=-560.210693359375 stress="-0.024458281695842743 -0.0067547704093158245 -0.01885898783802986 -0.0067547704093158245 -0.03255966305732727 -0.020625228062272072 -0.01885898783802986 -0.020625228062272072 -0.028280429542064667" free_energy=-560.210693359375 pbc="T T T"
Si       8.87951379       3.35314573       3.96915083        0       0.73940853       0.54637366       0.09164054       0.00541043      -0.01739425       0.01244155      -6.13907534
Si       3.02664882      -8.60055273       0.97272953        0       0.09209772      -0.69154423      -0.26869961       0.02100235      -0.02860194      -0.00660171      -6.14449459
Si      -9.15431553       3.87454665      -0.78176764        0      -0.67485802      -0.05485753      -0.05675067       0.03243316      -0.00972578       0.00067542      -6.18879896
O       -9.65686632       2.44249034     -10.98755278        1      -0.13920504       0.48420779       0.03372703       0.00472926       0.00151753       0.00303771      -8.58182847
O        0.88163590       4.86248260       0.50849678        1      -0.07536772      -0.38665560      -0.23595603      -0.01036488      -0.01950440       0.01387006      -8.47989070
O       -0.30362343      12.53058280      -1.73831334        1       0.67843391      -0.33692015       0.44738931      -0.00318368      -0.00906144      -0.00045083      -8.55868423
O       12.91493233      15.05789024      -2.96526518        1       0.29913766       0.02588313      -0.94079089       0.00777368       0.01318377      -0.01868341      -8.51695383
O       -7.07281641       9.98994919       1.09565527        1       0.66229338      -0.25476515      -0.15177096       0.01092590      -0.00299491      -0.03820182      -8.60496795
O       12.61828811       2.60301390       1.08207627        1      -0.06226527       0.25941427      -0.31997068       0.02412446       0.00046292       0.00824153      -8.59383762
Si       0.02466109       1.66213437       7.37775787        0      -0.06574243      -1.02396851      -0.36828463      -0.01548311       0.01692956       0.02508901      -6.10683161
Si       4.73280725       7.42205205       6.67878048        0       0.62461794       0.68937198      -0.27592607       0.00251013       0.02247570      -0.00027633      -6.06826073
Si      -4.48252642       4.48720130      -0.37188245        0      -0.27331630      -1.06577304       0.72588263      -0.00973804      -0.00941883      -0.00509173      -6.10543925
O       11.88249452      -2.38677110      14.11134251        1      -0.06828578       0.91776601       0.34054708      -0.00800030       0.01967480       0.00325641      -8.73057735
O      -11.62113354      -1.25494581      17.59755825        1      -0.13006524      -0.46761276      -0.33899376       0.00260092       0.00064190       0.01017296      -8.58323991
O        2.99001447       4.73287306       6.97561890        1       0.12873511       0.26321920      -0.37321765      -0.01386252       0.00957027       0.00969474      -8.54425991
O      -11.40301898       3.74299206       5.42419567        1      -0.26368793       0.60316943      -0.58805158      -0.00248946      -0.02021462      -0.00909974      -8.66429269
O       -0.34826737      11.97066335       2.64330424        1      -0.01608880      -0.08054722       0.30866383       0.00081462       0.00207309      -0.01552046      -8.47762668
O        6.01112352       3.30353400       0.52599393        1      -0.02713634       0.05580502       0.00916886       0.01365550      -0.00855756      -0.01777759      -8.47929323
Si      -2.74266399      -2.49193504      -4.44828278        0      -0.34781778      -0.74699194      -0.34018948       0.01090439       0.00727136      -0.00164169      -6.18031603
Si       6.62546327       5.83834551      -2.48730729        0       0.34052804      -0.42283087       0.93599299      -0.00000446      -0.01426282      -0.02096556      -6.23912913
Si      -4.28383354      -0.01906089      -0.74026542        0       0.37929536      -0.82151181       1.14425405      -0.00934805       0.00685476       0.00259572      -6.24777085
O        0.43196333      15.30230343       8.04628400        1       0.28662258       0.10547466       0.07366092       0.01011727       0.02639458       0.00504138      -8.56503618
O        9.01539473      13.52785421       0.55417534        1      -0.00457303      -0.11935390       0.31736495      -0.00401155       0.00200602       0.00991246      -8.59810579
O       -0.74020540       6.61126314       1.70702837        1       0.28414198       0.26890621       0.00646299      -0.02022354      -0.01097165      -0.00058828      -8.62134731
O      -13.59589946      11.13849148      -4.15099830        1       0.42969052      -0.22695014      -0.38039983      -0.04559921      -0.01626083      -0.00915366      -8.57590759
O        2.62958559      11.46639340       3.08605304        1      -0.10515440      -0.37143706      -0.10437214       0.03774992       0.00615515       0.01052582      -8.60593641
O        1.57890776      14.04510314      -0.87216876        1       0.22864528      -0.17002745       0.15258165       0.00360228       0.00932311       0.01839888      -8.57718647
Si      -5.86169132      17.35574997       5.09962138        0      -0.09864662       0.31651346       0.28987331      -0.00954276       0.01587932      -0.00012307      -6.18822390
Si      -7.40827496      11.50449194       1.43915046        0      -0.42640600       0.02894576       0.00945958       0.00708719       0.01036029       0.01054673      -5.97093731
Si      -1.69671119       7.21757783       2.88224221        0       0.57520058      -0.85939120       1.86875904      -0.00240603       0.01638837       0.00210666      -6.15439183
O       -0.11567190      10.07136373       4.39176306        1       0.52829633       0.18277793      -0.19449562       0.01152906      -0.00582221      -0.00467456      -8.60859382
O       -3.56002363       2.12667379       6.50075272        1      -0.70497925       0.11462313      -0.13082998       0.02049967       0.02288350       0.02755506      -8.57552087
O       -7.77806443       7.92280205      10.59696874        1       0.26098026       0.12225491      -0.38170219       0.00168522      -0.03915749      -0.00944507      -8.58958232
O       -2.32853141      16.16509431       2.35882088        1      -0.30921257      -0.36292870      -0.63387044      -0.01303287      -0.01458529       0.01221143      -8.78376758
O       -2.08035547      11.77071177      -6.13367258        1      -0.09081468       0.61470233      -1.01141609      -0.00342844       0.00559661      -0.00898762      -8.51107299
O       -2.81305087      26.02500038      -0.24186301        1      -0.53460833      -0.49097917       0.54210750      -0.01166717      -0.02223358      -0.00601447      -8.61938560
Si       7.42232042       3.23729124      -4.06430559        0       0.09990588      -0.48608194       0.70141784       0.03901491      -0.00045641      -0.01070362      -6.24252421
Si       0.76569238      -2.69959080       4.26223735        0       0.55399902       0.67451382      -0.01997604      -0.01447957      -0.00252140      -0.01071293      -6.13829333
Si       9.50278654       5.04628625      -9.20726185        0       0.78061954      -0.24615353       0.38601130      -0.00542178      -0.01313883       0.02234094      -6.09750324
O       -0.20472842       4.56885317       3.16488853        1       0.38407162      -0.00930797      -0.35767910       0.00595933      -0.01559745       0.03382778      -8.55023324
O       11.88410902       6.18794756       4.72762781        1      -0.43732775      -0.51971963       0.66977225       0.01391608      -0.00278283       0.01623703      -8.58901870
O       12.57091296       0.16686807       2.28665309        1      -0.03656447      -0.08108087       0.65165418      -0.03979893       0.02170228       0.01518810      -8.78590810
O        2.38449454       4.95730907       2.47833833        1       0.04447800      -0.33342591      -0.48062771       0.00806642       0.00408734       0.00902909      -8.42696512
O        4.87776853      -1.34456277      -1.33714007        1      -0.70836214       0.04394877      -0.43260644      -0.02349430       0.00294799      -0.00130706      -8.59473360
O        9.00271451       7.48825608       4.23401429        1      -0.12736277       0.17461412       0.18517108       0.01207834      -0.00325534       0.01298192      -8.61648452
Si       3.41106807       4.01056787       1.64310209        0       0.27158050       0.02163164       0.84347837      -0.02786862       0.00964686       0.00510175      -6.12995106
Si       0.54431606       0.87973516      21.12244308        0      -0.70031624       0.11325940       0.04026250       0.00561047       0.01515322      -0.01269390      -6.14278752
Si       1.64852123       2.21568286       5.13666164        0      -0.30798028      -0.52516405      -0.66818181      -0.02580929       0.00831603      -0.00096853      -6.15745026
O        1.76329956      12.96314693      -3.33178514        1      -0.20480325       0.55407426      -0.35857673      -0.01045061      -0.01942347      -0.02355776      -8.49912393
O       14.46870228       0.09625349       6.56304348        1       0.23887645       0.41628372       0.40526561      -0.01268542      -0.02273916       0.00602555      -8.57152069
O        9.48237776      -0.16602197      11.21264960        1      -0.03360694       0.26765309       0.25046891       0.01692308      -0.01268585      -0.03707270      -8.75792015
O        3.59408672      -6.02213753      -3.10724458        1      -0.94874772       0.27213919      -0.07698508      -0.00142621       0.01012890      -0.00381593      -8.56357133
O       15.16222345       9.34352109       8.70024480        1       0.27587486       0.58991671       0.34113808       0.00304709       0.01763622      -0.00448230      -8.62075937
O        9.32411232      14.80444660       3.40241375        1      -0.28582280      -0.01568004      -0.38616953       0.00711919       0.01833492      -0.01661547      -8.68449914
Si       5.12901227       1.40835917      -3.40026922        0       0.97335249       0.10088866      -0.44885353       0.00954418      -0.00977110      -0.01957735      -6.21706444
Si       3.29205086       3.68788482       8.18376405        0       0.37602657      -0.08186672      -0.35630485       0.02773830       0.03035768      -0.00597400      -6.23638588
Si       3.11740404      18.01599561       0.91307787        0      -0.66684857      -0.06966251      -0.86545100      -0.02752028      -0.00577570      -0.00152379      -6.21915632
O        0.30693434      19.31002323      -6.63426312        1      -0.98328564       0.36200832      -0.14614708      -0.01598703       0.00583717       0.01439924      -8.61101186
O      -17.59604693       3.60047969      -1.58333363        1      -0.62619109       0.06627753      -0.15548018       0.01518081       0.00863503      -0.02708469      -8.61947525
O        3.39183904      12.69390718       0.92903200        1      -0.31360174      -0.29324356      -0.28663456      -0.00402522       0.01718790      -0.01637104      -8.57096946
O       -2.53677073       9.25964179       5.15562255        1       0.18838455       0.02327315      -0.07576338       0.00363356       0.03004318       0.00022521      -8.59771478
O        4.63882638       0.68504591     -10.38515262        1      -0.10192868       0.45361541       0.73566831      -0.01412773       0.00524971       0.02148578      -8.65227640
O        9.49848271      38.67028352     -12.63883308        1      -0.19665177       0.05887766      -0.26593039       0.02393264      -0.02117902      -0.00064877      -8.53103054
Si       4.41145235       3.12578209       4.21291558        0      -0.63387499       1.22184652       0.26375541       0.00846517       0.00426240      -0.01914825      -6.11643130
Si      -5.24183981      -2.39262910       8.29806322        0      -0.03344482      -0.13490794      -0.50141566       0.02109199      -0.01048711      -0.00614432      -6.25044113
Si      -7.02453432       6.31479277       3.27576778        0       0.23919726       0.26891067       0.35977310      -0.01676625      -0.00286290       0.01559111      -6.11591727
O       15.53483460       6.72675512       5.57921965        1       0.57378866       0.64325893       0.36133529      -0.02070232      -0.01356684       0.00714847      -8.56693494
O        9.69036495       0.48241698      17.09120586        1       0.67722029       0.47026498       0.08220103      -0.02904549       0.02918590       0.01050346      -8.53711927
O       -1.17370169      10.77946462       7.51453087        1      -0.32538320      -0.11939293      -0.54204326      -0.00400712       0.00455125       0.00137552      -8.53957641
O       -4.20600691      14.60164996       7.04539360        1      -0.02515991      -0.10620146       0.29241375       0.01171436      -0.03688873      -0.01661327      -8.67385137
O       -4.07757652      18.07882246       8.86050189        1       0.08160620      -0.31053458      -0.04799782      -0.01208153      -0.00763758      -0.00832651      -8.72612512
O       15.23891245       4.27646874      -5.97945615        1      -0.18161159      -0.10919580      -0.29880677       0.02589281      -0.00937104       0.03980441      -8.47936857
