72
Lattice="9.8268 0.0 0.0 -4.913399999999998 8.510258437908922 0.0 0.0 0.0 10.8104" Properties=species:S:1:pos:R:3:spacegroup_kinds:I:1:momenta:R:3:forces:R:3:energies:R:1 spacegroup="P 31 2 1" unit_cell=conventional energy=-559.6503295898438 stress="-0.03650577366352081 -0.003853052156046033 0.010400117374956608 -0.003853052156046033 -0.009486778639256954 0.006813644897192717 0.010400117374956608 0.006813644897192717 -0.019757745787501335" free_energy=-559.6503295898438 pbc="T T T"
Si      -3.90451544      -6.60287178       9.59299421        0      -0.74255140      -0.65567158       0.60753507       0.01370673      -0.01275213       0.00535943      -6.34052712
Si     -10.37157120      -3.86726379      -2.35262724        0       0.70028547       0.10462564      -0.22574751       0.00505100       0.01297706      -0.01220126      -6.13126141
Si      -0.75629380       1.88187448       2.53912433        0      -0.26645562       0.26811461      -0.84306170      -0.00318013      -0.01108460       0.02015024      -6.08832747
O        4.88995847      -3.45565802      12.39549194        1       0.62338941       0.14723798      -0.08477379      -0.01071602      -0.02148654      -0.00111355      -8.51664436
O        1.10695742      10.61210645       3.47966766        1      -0.60433958      -0.05058093      -0.22947471       0.01792795       0.00830025       0.00185545      -8.71882427
O       -3.35708041       6.00334407       5.40419071        1       0.03315481       0.01323541       0.55318557       0.00227652      -0.00243847       0.02490170      -8.69620311
O      -10.16304378       7.39849902       2.71915508        1       0.21339333      -0.36468912       1.10559243       0.00132823       0.02590662       0.00521412      -8.75146568
O        6.91371394       0.64370174       5.52192702        1      -0.02750233      -0.10533020       0.03711455       0.01100840       0.01506348      -0.01992898      -8.60809076
O        5.21229149      -3.56466108       7.22297047        1       0.27352791       0.27933569       0.52605922       0.00488238      -0.01909116       0.00177010      -8.55186927
Si       2.94184099       8.05001937      -4.53814801        0      -1.23190753      -0.51332337       0.31638167      -0.03492405       0.02083883      -0.00292432      -6.25117022
Si       0.74162266       6.47735586       7.06428098        0      -0.07153263       0.76573767      -0.31090905      -0.00159402      -0.02415323      -0.00155422      -6.21420866
Si       3.17100127      -7.05870485      -2.22704341        0       1.02657615      -0.24556950      -0.29100712       0.00094289       0.01650824      -0.02794136      -6.59500080
O       -1.31570682       1.88711687      14.87134852        1      -0.00149944       0.38507776      -0.23906958      -0.00556521       0.00937319       0.01953650      -8.53302228
O       -0.39797827      -4.33003777      13.74946865        1      -0.19215035       0.02897704       0.33951820      -0.00248112      -0.00275981      -0.02788896      -8.70562160
O        5.60366156      -5.91223019      13.71884386        1       0.12759362      -0.04430271      -0.21888806       0.00196691      -0.00120324       0.00484499      -8.50718391
O       -5.31678756      -3.61526088      14.91579075        1       0.07998612      -0.06654948      -0.27856484       0.01383939      -0.02907562       0.01175402      -8.57116354
O       -0.96610009       8.93324452       8.31270708        1       0.13091210      -0.43744526       0.64416898      -0.01653883      -0.00979513      -0.03251791      -9.39253938
O       -7.84266239      11.91933213       5.56868144        1      -0.03201914      -0.15941450      -0.54443325       0.01316435      -0.00710312      -0.02711834      -8.58586824
Si      -2.78471959       2.03847188       4.71509317        0      -0.14162189       0.15324548      -1.24520038      -0.00560310      -0.00616879      -0.00218677      -6.19910246
Si     -13.20219285       7.05569385      13.07928740        0       0.51436659       0.11776040      -0.49032462      -0.00035109      -0.00252028      -0.00704604      -6.16057211
Si      -9.07372683       3.68813832      -6.63538725        0      -0.93001878      -1.45390417      -1.33854176       0.01918949      -0.00077388      -0.00757121      -6.22981268
O       -5.81525482       8.92949071      12.63929378        1      -0.06419060       0.27423678       0.11001057       0.00842367      -0.01332432      -0.00795557      -8.70104396
O        2.08199757     -10.36024665       6.15714072        1      -0.09341393      -0.08322032       0.40714796      -0.01095042       0.01354671      -0.00457773      -8.52525270
O      -12.57560450      12.98289415       3.99093469        1       0.64411534       0.13083985      -0.52837987       0.02243569      -0.01522429       0.00674373      -8.65268552
O       -3.42681062       1.83217769       7.97682615        1       0.10190800       0.02910528       0.31634770      -0.00749347       0.01336929       0.00177713      -7.78655374
O        3.29218444      11.41108258      -9.17166521        1       0.39972623      -0.41082819       0.25057002       0.02354932       0.01188935       0.00633825      -8.54696214
O        2.51575263      21.27833682      -9.50201379        1       0.46076274      -0.13266710      -0.19804593       0.02148696      -0.02542433      -0.00377607      -8.69607913
Si      -7.73234217       6.44137060       9.56764215        0       0.28260746      -0.79369277       0.28191752      -0.02441245      -0.00068097       0.00348664      -6.12784201
Si      -5.70219668      14.29921278      13.59542119        0      -0.51751859      -0.00603783       0.51156569       0.01929880      -0.00114983       0.01747308      -6.11277729
Si       1.04620826       4.34611549       0.61722684        0       0.19188010      -0.17034493      -0.80721557       0.00569811      -0.02372491       0.00311123      -6.22181994
O      -16.62192258       6.52012651      13.35281243        1      -0.10645372      -0.08110335      -0.51937462      -0.01286519       0.00383173       0.00495532      -8.69052875
O      -12.46706818       9.53779688      10.07833787        1      -0.50027695      -0.42523962      -0.00941578       0.01583207      -0.00277798       0.02756558      -8.51590955
O        2.05073251      -0.02291130       6.12333441        1      -0.63593911       1.09145815       0.50277835       0.00489926      -0.00170348       0.01371769      -8.85379875
O        0.64573182       2.89937586      21.65250257        1      -0.13504319       0.07877572      -0.05617055      -0.01632345      -0.00687222      -0.01930842      -8.60840881
O       -4.59536160       6.69300188      22.88151954        1       0.13640406       0.03321774       0.50429695      -0.01186323      -0.03066469      -0.00872777      -8.57728374
O       -2.00486207      -1.24098190      -0.07282703        1       0.45011484       0.63267193      -0.22429895      -0.02209194       0.00867558       0.00491873      -8.72567785
Si      12.20809004      -5.48377041       0.30499935        0      -0.12959367      -0.81038486      -0.72656713      -0.00205529      -0.01861250       0.00483127      -6.31401926
Si       3.74766920       7.39453699      12.14841208        0      -0.00947178      -0.55483262      -0.31074555      -0.01312999      -0.02968045       0.00317007      -6.12061077
Si      13.15560028      -0.13551176       9.80196084        0       0.16453370       0.21539480      -0.56903935       0.02041000       0.01063699       0.00354832      -5.94603306
O        9.13507686      -6.90119756      -4.47537006        1      -0.57052881      -0.59479318       0.15290180       0.01597807       0.03775235       0.01512644      -8.46954477
O       11.26449524       2.75736781       8.23870318        1       0.17723996       0.52018899      -0.23102443      -0.00696087      -0.00298281      -0.00429207      -8.62153661
O        3.07250925       5.55926342      -2.20409676        1       0.41107946       0.17214849       0.26788347      -0.00072914       0.01288885      -0.00515444      -8.65624464
O       -1.09714555       2.65972944       7.59981386        1       0.33082344      -0.56473773       0.60543410       0.01014182       0.00027320      -0.01462907      -8.34974563
O       -2.41841981       5.76532527      13.38751999        1       0.57044452       0.22619816       0.64624246       0.00908923      -0.02241226      -0.01115446      -8.60507047
O       -2.10258431       4.41083098      -0.47656783        1       0.47793782       0.05510661       0.04844084       0.00427738       0.01072103       0.00561179      -8.61128080
Si       4.84376471       1.90048652       7.87254696        0       0.33685130       0.25588874       0.41749856       0.00193304       0.02150223      -0.00097005      -5.71605927
Si       6.43941436       4.71749871      17.18997005        0      -0.24334258       1.46851287      -0.64800182       0.00552656      -0.03569856      -0.00801091      -6.19659096
Si       5.23841092      11.82701780       7.17237108        0       0.73890351      -0.19875424      -0.28746798       0.00198430      -0.00383927      -0.00998540      -6.29319340
O        2.45754775      -3.47582540      -3.12538060        1      -0.20098240      -0.04215167       0.08601192       0.01852509       0.00569216      -0.01435831      -8.56902921
O       19.41839286     -16.05710125      -1.51034282        1      -0.17798709      -0.68758875       0.35424438      -0.00262791       0.01139987       0.00837645      -7.95885503
O        0.73692722       2.95782876      16.43807062        1       0.36835709      -0.41085465      -0.48425819      -0.01332901       0.03376386      -0.00858074      -8.62154424
O        3.14069979       8.48937089       7.80806890        1       0.27924087       0.19834978       0.15221626      -0.01599573      -0.01088506      -0.00013439      -8.24662483
O       -7.09097957      -1.59009227       9.46475612        1      -0.19639802       0.18865110       0.11813352       0.01477662       0.03206606      -0.00232152      -8.69271505
O        4.00242568       1.56408304       2.13992900        1       0.28099686       0.21216134       0.43413734       0.00577727       0.01109159      -0.00311565      -8.69126165
Si      -2.74836547       5.41589823       9.24365090        0       0.84182005       0.14468710      -0.65648171       0.01099882       0.03465085       0.00143649      -6.20120388
Si       3.06400018       4.88359965      -8.09706018        0      -0.04674134       0.68648149       1.20398027       0.00199517       0.01187081       0.00184411      -6.17510897
Si      -0.94971999       8.53187991       1.67773480        0      -0.60453512       0.55606394       0.66136749      -0.01105616       0.01635739       0.00525509      -6.04419523
O        9.43354527      -8.64631891      10.92641077        1      -0.18152367      -0.56913392      -0.31038975       0.00543666       0.00144220       0.00265908      -8.60490882
O       -2.35700538       1.79552744      10.10952337        1      -0.24253313       0.60000111      -0.36613004      -0.01386741      -0.01383758      -0.00270012      -8.20960844
O        1.08692281       5.36882476      10.20066473        1      -0.17631448      -0.08021498      -0.03195132      -0.01339082      -0.01154942       0.01694447      -8.38133085
O       10.92982218      16.32206173       3.64635839        1      -0.48154184       0.32558946      -0.69733408       0.01239644       0.01677937       0.00550523      -8.73334301
O        4.42112811       7.79501148      16.47279028        1       0.29830582       0.38622237      -0.08818028      -0.03313461      -0.01500017      -0.00125307      -8.71642005
O        4.15049337       3.04943528      -2.01240105        1       0.24374298      -0.62120629       0.16118143       0.00632116      -0.00441823       0.01082645      -8.61365163
Si      10.85438687      -0.98768426       5.23704933        0       0.83855113       0.92059621      -0.61250268      -0.02496952      -0.00705978       0.01667394      -6.16085440
Si      -1.33581547       8.63484436       6.60587587        0      -0.58413459       0.20078905       1.51497787       0.01552717       0.00544783       0.01631123      -5.56039292
Si       0.17587180      11.27823634      13.15890631        0      -0.41993561      -0.19897327       0.64077411       0.01998141      -0.00574203       0.00845260      -6.20910412
O       -0.02050640      13.08372056      17.71687953        1      -0.11834027      -0.72311917      -0.67056038      -0.01086113       0.02865991      -0.01926529      -8.75314271
O       -2.51969616      -8.84822339      12.28912478        1       0.08702918       0.19829568       0.37652736      -0.00042382      -0.00248516      -0.00463299      -8.56475580
O       15.29265013       5.34451092       9.42886647        1       0.22670638      -0.09900693       0.09921136      -0.00424157       0.02000080       0.01535243      -8.67348135
O        9.33981780       7.30154711      17.13672780        1      -0.98270665      -0.47533053       0.04867060      -0.00193045      -0.01252627       0.00085700      -8.68460834
O       -8.79101369       7.16922808       8.53494088        1      -0.24224408       0.86173175       0.03648660      -0.03445239       0.00060581       0.00212497      -8.37731349
O        5.77542651      20.10391545      11.71574556        1      -1.15997898      -0.09571991       0.33301615      -0.01787439      -0.01519834      -0.00548455      -8.61589611
