72
Lattice="9.8268 0.0 0.0 -4.913399999999998 8.510258437908922 0.0 0.0 0.0 10.8104" Properties=species:S:1:pos:R:3:spacegroup_kinds:I:1:momenta:R:3:forces:R:3:energies:R:1 spacegroup="P 31 2 1" unit_cell=conventional energy=-556.8185424804688 stress="-0.007272159215062857 -0.009775764308869839 0.024214832112193108 -0.009775764308869839 -0.028734488412737846 -0.00451099406927824 0.024214832112193108 -0.00451099406927824 -0.03773149102926254" free_energy=-556.8185424804688 pbc="T T T"
Si       0.60009136     -11.43386718       1.36671788        0      -1.39202328      -0.94729669      -2.37653851       0.01721966       0.03393719       0.00334242      -6.15467650
Si      -5.73699534      -4.55714332       6.57577334        0       3.12838444       2.11418958       2.23532601       0.00443954      -0.01322768       0.00988061      -6.21927172
Si       6.91931770      -0.97399148       5.45125976        0       0.96689452      -4.59841061      -0.25605890      -0.01909173      -0.00140480       0.00275028      -6.17773014
O       -1.52193484      -6.35303509      -0.00904679        1       0.59799197      -1.62350107       1.21180844      -0.00225195      -0.00851543      -0.03453740      -8.80716312
O        3.20279682       8.36156780      -4.54524567        1       0.76525841      -0.85866187       1.07079308      -0.02041641      -0.00520286       0.01158620      -8.67094791
O        2.66746309      -3.76217586       6.68861506        1       0.67373920       0.49159327      -1.02476035       0.00096294       0.00020830      -0.02926455      -8.58629787
O       -8.28306504      -6.73873710       6.61446514        1       2.61571735       2.59407771      -2.44000143      -0.02183726       0.00731516      -0.00583398      -8.47788656
O       -3.79570174       2.35014284      -0.05075710        1       0.45428034      -1.85116092      -0.26407271       0.02596772       0.01729787       0.01586802      -8.68362939
O       -4.12960828       6.93089368       4.47021993        1      -3.93549662       0.24039294      -1.82552119      -0.00504667      -0.00646511       0.02897817      -8.44824541
Si       4.09343185      -7.24714748      14.63398704        0       2.20333710      -2.56103892      -1.24061418       0.00367711       0.01455903       0.00296452      -6.26246887
Si       1.48231728      -2.84008015       1.98536800        0       0.07832582       1.26159381      -4.48671293       0.00037491      -0.01411688      -0.02776870      -5.54431969
Si       1.09791425       5.99383356       7.83201654        0      -6.85081508       5.02975212       3.29459786      -0.01261519      -0.00971635      -0.00551739      -6.23692518
O       -6.06972350     -10.10492395      10.29390797        1       1.53719843      -3.25032969      -1.12453865      -0.00100493      -0.01699252      -0.00373413      -8.59117734
O        2.17550350      -1.37953436      13.02592053        1      -2.83790839      -3.51505041       2.50458204       0.01482818      -0.00517026      -0.01995924      -8.39186132
O        2.30986940      -3.80121728      13.87810877        1       3.43567837       0.43723670      -0.24985753      -0.00118813       0.01732196      -0.00319223      -8.48179281
O        1.06059551       8.56621768      15.42188103        1       0.11410478       0.50334220      -2.45403947       0.00205526       0.00137894      -0.00683355      -8.62769830
O        0.98114416       6.82236689      17.27172004        1      -2.84712556       0.51549094      -1.66983560      -0.00384696      -0.00986632      -0.00123949      -8.65675581
O        2.76044030      -2.12757938       8.81779326        1      -0.87336769       0.43139530       1.71333758      -0.00262149       0.00925726      -0.00796207      -8.69220006
Si      -6.61679434       2.02102368       7.60717381        0       1.17685079       3.62950264      -2.58634079       0.00882194       0.00821089       0.02078830      -6.00234658
Si      -7.86725697      -3.30768166       8.06355764        0      -3.40587797      -1.51170366      -2.63805540       0.00281885      -0.00096588      -0.02097636      -6.13509804
Si      -6.39269369       6.11799132       0.84559782        0       0.98901196       1.29646009       1.33216239       0.02224827       0.00104475       0.00199190      -5.91420561
O       -7.15882120       5.69615006       8.17487880        1       1.15696729      -3.13480207       2.21666698      -0.02989516       0.00301824       0.02160938      -8.66007364
O        6.18777723      10.29780198       0.56389797        1       3.04482484      -1.78261428      -0.03557035       0.00545785      -0.01000908      -0.00331958      -8.92975509
O        8.57118008       3.29014817      11.15441456        1      -1.00842405       1.54037254       1.87751838      -0.00032877      -0.00412514       0.01238606      -8.60578525
O       -7.33842966       0.54686444       3.89814090        1       1.40972970      -0.27457888      -0.80956296       0.03725716       0.01172331      -0.00893158      -8.60269916
O       -2.89141565      10.48531779       8.72953360        1      -0.34404185       1.23803319       2.37199204      -0.00684415       0.00547406      -0.00918585      -8.37329519
O        1.09714320       4.04958890       1.03871953        1      -0.87157276      -3.09344024       2.38590163      -0.01831868       0.02645055      -0.00029644      -8.53074348
Si      -0.93081760      -3.75096624       8.02268722        0      -1.70126456       5.52917246       0.19825705      -0.02001163       0.02556197      -0.01427967      -6.04005390
Si       6.84068569      10.09916341      15.82738437        0       0.17351160      -1.05762705      -0.91317035       0.01140837      -0.01008908       0.01978926      -6.12786299
Si      -0.33833360       2.10389465      11.80968598        0       1.06433670       5.75630477       0.18819842      -0.01256782      -0.01556420      -0.00856920      -5.99977690
O        1.56639052      -3.56684378       0.55424267        1       0.16100886      -0.28140213       2.05855468       0.00319708      -0.01699479      -0.01463398      -8.57531440
O       -0.28827355       2.20074939      13.40631187        1       1.53459006      -1.38091837       0.47393073       0.00727468      -0.00665769      -0.00761622      -8.47799098
O       -2.20468142       2.01657917       4.25770254        1      -0.42118687       1.96093064      -2.34546905       0.00356904       0.02688506       0.01282146      -8.62185466
O       -4.93874257      14.00965409      13.64708155        1       2.09813409       2.30259569       3.03585285       0.02294273       0.00637835      -0.00015617      -8.53001916
O       -6.03557505       9.28175888      11.29746052        1      -0.78359590       0.40499503      -1.23158615      -0.00871900      -0.02637025       0.01814687      -8.61898410
O        5.66033771       8.52405619       9.60122269        1      -2.70040876       1.63545703       0.49148847      -0.02301724      -0.01194181      -0.00108223      -8.43801868
Si       4.07706139       8.46915727      -0.89492543        0       2.05437805       1.39789966       6.02053686      -0.03227738      -0.00990829      -0.00179847      -6.17362458
Si       9.60656416      10.97763982      -0.97352016        0       1.57758337      -0.88320175      -3.92778522       0.03701373       0.01086146      -0.01688674      -5.84194714
Si       3.75066160       3.39777446       3.86336953        0      -1.75379737      -2.16017196       2.77268677      -0.00012987       0.01105657       0.02882162      -6.23350626
O        0.28816615     -12.42263565       7.58997778        1       2.16748974       0.64608450      -2.65864969       0.00436167      -0.00271188      -0.01851078      -8.66305816
O        6.86242885      -1.96483959       1.40345870        1      -0.70301547      -2.32438863      -0.19716636       0.03034524      -0.01252496      -0.00296260      -8.74807203
O       10.24725496      -2.90416658       7.65220054        1       0.53993127      -1.54040710      -1.32721444      -0.01664156       0.01900071      -0.01026157      -8.65661657
O       -1.68058326      -5.72277769       2.44022014        1       0.38663702      -1.22310674      -2.16051035      -0.02429729      -0.00777388       0.02132206      -8.37963331
O       -2.69953523       3.90004722       9.03036002        1      -0.42412776       0.95479565      -0.42075771      -0.01157838      -0.00471839       0.01113158      -8.57660949
O        3.56572299       3.52061263       7.03408659        1      -1.02661714      -3.32007703       1.69546146      -0.01842373       0.01438951       0.01512443      -8.60893762
Si       4.21495059     -10.41311999       3.79208181        0      -1.16673895       0.47355065       4.22724241       0.00047827      -0.00504026      -0.02595347      -6.13663250
Si       7.88829526       1.17362710       7.22096061        0       0.47985622      -2.23814442      -1.56160749      -0.01651417       0.00155858      -0.02382547      -6.01782566
Si       6.94950003       9.47180780      10.04946853        0      -1.07058653      -4.01318988       4.06154302       0.02463209      -0.00209704       0.01931337      -6.14550692
O       -2.23555470      -7.41589260       6.39456129        1       0.61506875       3.15754274      -3.55490711       0.01355441       0.00777886       0.01888025      -8.71558845
O        9.26669268      -3.63060402      14.59357905        1       2.75713578       1.49992778       0.62723991       0.00189245       0.00753553      -0.02312487      -8.07782066
O       13.18635828      -1.88515212      15.39445202        1       0.23049159       0.16367945       0.59346047       0.00807782      -0.01389456       0.01432741      -8.53561866
O       13.29331764       4.54458383      11.46104936        1      -0.04431756      -6.03419004       0.42124898       0.03321341       0.00543308       0.03015646      -8.20491302
O        3.87457358       8.24409126      14.15659932        1       1.69949501       0.88757589       2.76923616       0.01705101      -0.00875713      -0.01844656      -8.23486650
O       -0.54205309       4.16057496       4.97421010        1       0.08620586      -0.62071545      -0.84500571       0.00877831       0.00902162       0.01769993      -8.52599180
Si       3.71121839      -3.32629301       3.89273258        0      -4.44774485       1.34544907      -0.57509326       0.02008631      -0.00518586      -0.00749452      -6.16827112
Si       3.91895639      -1.55417336       9.81107211        0      -1.04159426      -0.75886716      -2.20475912       0.01831689      -0.01520704       0.00379661      -6.10489184
Si       2.19674038      -1.02640102      -6.96450138        0       2.42226493       1.47076107       1.10568435       0.00427970      -0.00489923       0.00672396      -6.12889534
O       12.21138443       3.12346436       4.74065682        1       1.50164573       3.48697082      -0.86576180      -0.01357959      -0.00150953       0.00225486      -8.41902196
O        4.96267126       2.48358707       4.45376992        1      -0.12016044      -3.03506965      -1.69147888      -0.01366097      -0.02066097      -0.00255342      -8.67980897
O       10.14777969       1.40810384       4.99183541        1       0.71520832       1.34592043      -2.17181456      -0.00647239       0.00625147       0.01846707      -8.51543605
O        9.63247365      -2.17422132      12.78205972        1       0.06745126      -0.77335371      -1.31217476      -0.02061791      -0.01882187      -0.02152358      -8.94320047
O        4.47647583       4.00295771      -1.44300269        1       2.70642828       3.35144520       1.51665157      -0.02206417       0.01422088      -0.00371718      -8.42484033
O        4.34618816      -2.40390905       0.34613182        1      -1.46371088      -0.79891025       0.68077187      -0.00092339      -0.01484258       0.00954675      -8.66425502
Si       2.56039816       3.21829968      11.85029205        0      -3.06442232       3.10154009       0.31013261       0.00014520       0.04499060       0.01354489      -5.99679285
Si       2.17125767      12.11622248      10.61906089        0       0.42681351       4.36935663       2.91650631       0.01787345       0.00840524       0.00502348      -6.13058335
Si       6.20618779       1.63130421       4.97252658        0      -0.86670392      -3.67107229       0.06821668      -0.00258616      -0.00204583       0.00046682      -6.13441807
O        8.94253087       2.40620464      17.89318452        1      -1.52292621      -0.13388742      -0.31664012      -0.03583002       0.00323013      -0.00112497      -8.51010978
O       17.85112314       0.58468463       8.74738437        1       1.59297885       1.34568705      -1.67427226      -0.01146305      -0.00126440      -0.01480047      -8.70839489
O        7.69044276      14.92441974      15.40549137        1      -1.99215282      -2.63739170      -0.12886511       0.02144043       0.00748344       0.00769642      -8.37724960
O        3.23543232      -0.16309409      10.28883049        1       0.90980611       0.72816198      -1.85186246       0.00368267      -0.03678656       0.00362575      -8.42389381
O        0.42320914       6.93318051       8.98787714        1      -1.02022724      -2.48385252       0.12650873      -0.00418803       0.01154904      -0.00801118      -8.65467918
O        4.53767923       1.52800341       8.49981441        1      -0.55722821       0.41085214       1.95708141       0.00112706      -0.01674291       0.00505914      -8.46198595
