162
Lattice="14.740200000000002 0.0 0.0 -7.370099999999997 12.765387656863382 0.0 0.0 0.0 10.8104" Properties=species:S:1:pos:R:3:spacegroup_kinds:I:1:momenta:R:3:forces:R:3:energies:R:1 spacegroup="P 31 2 1" unit_cell=conventional energy=-1255.9505615234375 stress="-0.011792734265327454 -0.0106044365093112 -5.580431025009602e-05 -0.0106044365093112 -0.03177148476243019 -0.002164368750527501 -5.580431025009602e-05 -0.002164368750527501 -0.007684614043682814" free_energy=-1255.9505615234375 pbc="T T T"
Si       9.45054455      -6.12632553       2.72979284        0       1.02434615       0.33026424      -1.31126465       0.00256384      -0.00047877      -0.01554524      -6.22259003
Si      -2.17419476      10.37057602      10.88905900        0      -0.99126675       1.51622552      -0.29810473       0.00702186      -0.00926483      -0.01877570      -6.22585875
Si       3.51850742       3.14637221      -1.43400283        0       1.49595790      -0.58038040      -2.11526303      -0.01091357       0.00398713       0.00572724      -6.07908636
O       -3.50636035      -1.46199082      -2.93870804        1      -0.30186863      -0.33897851       0.94869401      -0.01977086      -0.00857563      -0.00469083      -8.55354488
O        2.05906971      -4.48651861       7.44204418        1      -1.05487888       0.00733858      -1.24851325       0.00937004       0.00778157      -0.00309567      -8.39096582
O       16.01015687       5.73910889       3.82399212        1      -0.52740100       0.26631951      -0.48380770       0.01063900       0.00223903      -0.00854011      -8.67887866
O       -8.59131841       0.30225670      13.83358724        1      -1.66786574      -1.30615734      -0.74127801       0.01071247      -0.00742444       0.01267849      -8.60878122
O        0.48319425      15.28111329      -3.18088372        1      -0.43141502      -0.53097562      -0.06492629       0.01577795      -0.01276870      -0.01200217      -8.60065544
O        7.44877321       9.63548990      14.57717908        1       0.40751178       0.40876010      -1.28947832      -0.00824167       0.00357065      -0.01300618      -8.41918409
Si       2.16208845       4.51251448      11.39902750        0      -0.26008685      -0.98673705       1.25370132       0.00909550      -0.00458217      -0.00961748      -6.11172205
Si      -8.56876467       1.95233879      20.88764772        0       0.22070947      -0.94029682       1.01889755      -0.00850957      -0.00569877      -0.01592395      -6.13249499
Si       9.55797349       4.09143038      15.52026102        0      -0.12060254       0.01316197      -0.17879784      -0.00551833       0.01110554      -0.00476199      -6.09825236
O        4.71404717       0.16375798       7.68068506        1       0.45955897      -0.81168463       0.53893566       0.00274746       0.00199750       0.00840889      -8.51069438
O       -6.08067133      -2.44029599      11.80714265        1      -0.79244890      -0.00753009      -0.34556896      -0.00436351       0.02118154       0.00025639      -8.49524772
O        4.38828020      14.75800406      10.28064100        1       1.13706914      -0.08577335      -1.40955260       0.00581653       0.00377540       0.00687819      -8.72417724
O       -0.88136935       7.61278163      28.96232700        1       0.98154174       0.48461250       0.28888535      -0.01101678      -0.00940753      -0.01834358      -8.65445554
O        6.91057666       4.75928250       2.71687827        1      -0.39906847       0.71400688      -0.18693063      -0.01016515      -0.00362299      -0.00338998      -8.53598440
O       10.45968270       4.96761915       3.63273562        1      -0.69184160      -1.03444294       0.33874796       0.01870791      -0.00194202       0.01345828      -8.52336442
Si       9.12606434       7.37775935       6.08588845        0      -0.53985962       0.20683725       0.59055918      -0.01058022      -0.00459601       0.00998795      -6.04818684
Si      -8.72674535      12.82626177       5.62762666        0       0.15940304      -0.05522922       1.01689399       0.01450777       0.00462084      -0.00756605      -6.54078346
Si      -4.48691225       5.82758322       0.24263405        0       1.26489301      -0.81677553       1.47024345       0.00574682       0.01474958       0.01714751      -6.26167923
O        0.85764737       9.71786658      -3.79412456        1      -0.25553011      -0.73416110      -0.79160647      -0.00622756       0.00923312      -0.00815058      -8.60030305
O        3.04568700      16.65818268      -4.69283903        1      -0.72772630      -0.60522098      -0.86326939       0.00477995      -0.01476002      -0.00229222      -8.59163892
O        9.34616528       2.65603958      14.82458163        1      -0.52152867      -0.17739735       0.92667480      -0.00479753      -0.00214622       0.00503092      -8.68932188
O       -9.92738302       1.48620841       5.51743681        1      -0.72783187      -1.79684576       1.41417838       0.00931200      -0.00504877      -0.00243514      -8.58249414
O       -9.51857951      17.71759900      -5.66689060        1       0.18831073       0.65897032      -0.42134081      -0.02134874      -0.00809569      -0.01167620      -8.76532257
O        0.29558627      12.44562766      17.96647072        1      -0.19375749      -1.24409602      -0.06581485      -0.00658382      -0.01011090      -0.01524326      -8.61573875
Si      -2.24973973       7.13395267      12.82551917        0      -0.05711742       0.89752459       0.32970407       0.00548701      -0.00570966      -0.01144576      -6.25482756
Si      -6.72427628       3.62519116       8.85354427        0      -1.78824532       1.67369869       0.79569520      -0.00149725      -0.00664625       0.00173216      -6.06716353
Si       6.70616071       5.00110686      15.12867244        0       0.17056679       0.01996095      -0.08759679      -0.00758613       0.00554878      -0.00002709      -6.19585711
O        9.96842931       6.27269808       9.49216568        1       0.05645059       0.33898328       1.00152453       0.00128795       0.00130571       0.01170764      -8.50004470
O        5.90204472       6.38382799      15.34149349        1       0.96930341       0.85429824      -0.91406702      -0.00504085       0.00724595      -0.00407393      -8.51274765
O        5.55824545       1.52717290      22.32410208        1      -0.15987938      -0.60643214      -0.27374243       0.00067224       0.00369761      -0.00565863      -8.67676246
O        3.72077476      17.18853504      11.15237199        1       0.48697896       0.74444250      -0.72172761      -0.00784402       0.00511801       0.02106865      -8.59830892
O       -2.01450266      -4.16872741       3.20020962        1       0.36836374      -0.58523500      -0.06546409      -0.00265300       0.01109849       0.00752199      -8.44392955
O        1.41436470      18.30074562      11.71142081        1       0.87064627      -0.65913310      -1.63119320       0.00375251       0.01132762       0.00523519      -8.62062633
Si      -3.27514315       5.15753856       6.33471933        0       0.59913229      -0.21832317      -0.42713053      -0.00740042      -0.00116607       0.01079046      -5.99304348
Si     -11.29776769      12.65622952       7.01147515        0      -0.55969465      -0.96647606       0.80072050      -0.00656947       0.00103898      -0.00038855      -6.25690323
Si       8.01094011      11.00716498       4.40927978        0       1.78102110       1.56793486       0.80514273       0.01867038      -0.00509556      -0.01228481      -6.26515633
O       -6.43465897      12.62504563      -2.15658038        1       0.35217667      -0.44058561      -0.13920546       0.00265822      -0.00210526      -0.00134531      -8.63256013
O       -0.12093024      13.61573883       9.46627912        1      -0.03315254      -0.36084185      -0.18879423      -0.00236173      -0.00253372      -0.00719202      -8.54994857
O        1.94736041       3.39927716      12.57962410        1       0.47331802       1.01176991       0.92805233       0.01674730      -0.00696765      -0.00058539      -8.76785886
O       -0.96728960       8.98500745       5.11399766        1       0.18638719       0.61120387       0.77155010       0.00496458       0.00294267       0.00904534      -8.70557868
O       -3.66242199       9.88850451       0.52372604        1      -0.01447287      -0.34909371       0.66986004       0.00074305       0.00277193      -0.01072073      -8.48756206
O       -7.73933654       3.36117500      -0.69490646        1       1.38469413       0.49579196       0.82425342       0.01113755      -0.01226917       0.02066264      -8.54058921
Si     -13.94515685      13.72106740      18.86566274        0       1.34271280      -0.65351876       0.28614976       0.00509784      -0.01254607      -0.01078323      -5.97564799
Si      -6.63083028      15.59434148      -1.03481230        0       0.11041497       0.44604303       0.51146033      -0.01539929       0.00251102       0.01336631      -5.87687212
Si      -3.57373007      13.38932022       6.42273024        0       0.04556432       0.62675739      -0.75153913       0.00471860       0.00441074       0.00900394      -6.20405585
O        0.09958688      15.11342932       2.21438021        1       0.10342586       1.00191530       0.30150641       0.00032681       0.00093535      -0.01192517      -8.57393920
O       -4.52587801      20.43374140      18.77325614        1      -0.81305520       0.46912936      -1.31705876       0.00404328       0.00546431      -0.00727528      -8.49367416
O       -6.31209891      10.94390186      10.73038630        1       0.33787198       0.97205340      -0.07483317      -0.02306464       0.00217058       0.00702232      -8.58301055
O        6.05977236      -2.16976408       7.86436097        1       1.74131733      -0.71641821       1.22712478       0.00673406       0.01080008      -0.00293913      -8.54670036
O       -3.93506931      12.06276508      16.36899875        1       0.70784899      -0.49145045       0.56885391       0.01288704       0.00759026      -0.00922713      -8.55029714
O        4.81361584      13.43893615       6.72148111        1      -0.07268148       0.54391247       1.12041163      -0.00376552       0.00669700       0.01026115      -8.10906112
Si       0.89342843       1.07683749       7.54803888        0      -1.09268355       2.65719580      -0.08671533      -0.00001299      -0.00416274       0.00614208      -6.25339276
Si      19.40444684       2.84494643      15.47359780        0      -0.46232557       0.13453220       0.36424260       0.00202463      -0.01137757      -0.00983732      -6.18653351
Si      -5.16255405      -1.96578664      -0.29654907        0      -0.75697099      -1.32735176       1.70175697       0.00476737       0.00171281      -0.00468448      -6.04424864
O       -0.73119845      -5.47645117      -1.59022555        1       1.96801354       0.13288493       0.36392821      -0.01551601      -0.01539683       0.01065730      -8.56005752
O       -0.13010731       2.29714056       2.98243134        1      -0.79344929      -0.73508118       0.09048972       0.00082424      -0.01048099      -0.01783425      -8.81596601
O        3.05193032       5.85570707       6.00984696        1      -0.60530518      -0.92260372      -0.59673993      -0.00422370      -0.00864956      -0.01047144      -8.36427629
O        3.58207919       4.24756942      10.60613752        1      -0.67132048       0.62037292      -0.80145758      -0.00782794       0.01665553      -0.01325816      -8.59522521
O        8.79114009      -4.63358467       2.67164347        1      -1.10249619      -0.30138701      -0.35270222      -0.00157478      -0.00140925      -0.00261590      -8.56734312
O       -1.87094487       5.69146366       2.64480026        1       0.12221375      -1.79735640      -0.50586133      -0.01413557       0.01154831       0.00108550      -8.66668880
Si       9.32499768      -3.14743916      13.13304369        0      -0.88010564       1.37472237       0.00510136      -0.01138921       0.00516482      -0.00513972      -6.12024838
Si       6.76266978       6.41477520       7.83172043        0       0.32810686       0.37079063      -0.07807547      -0.00921284       0.01719187       0.01068749      -6.17375523
Si      12.68951869      -2.22453239      18.40492470        0       1.09058548       0.77688987       0.23951045       0.00843494       0.00781091      -0.00277820      -6.28611857
O        4.86580876       2.30007275       9.15846600        1      -1.89048480       0.17648632       0.41726593      -0.01862489      -0.00451124      -0.00022956      -8.59257734
O        4.83721127      -1.17343144      20.68880317        1      -0.11817145      -0.94193109       0.95389932       0.00022556      -0.00308421       0.00017536      -8.54013860
O        7.60680324       6.96592687       6.55058305        1      -0.62430430       1.63094895       0.45499751      -0.00949698      -0.00585205       0.00808164      -8.40483797
O       -2.46588224       5.45876066       7.71906617        1      -1.18341750      -0.77823466      -0.62327629       0.01135149      -0.00041893       0.01193515      -8.81842601
O       12.63672107       1.07747342      15.25905439        1       1.03855921      -0.58435522       0.06004759      -0.00280608       0.00803114       0.00605810      -8.14475000
O       13.85568437      -2.10788046       8.75911029        1      -0.99788850       0.29764089       0.42242616       0.00159943       0.01203714       0.01358557      -8.54523504
Si       5.98280264       1.73054343       2.25903630        0      -0.12587019      -1.04322332       0.04532322      -0.00034186       0.00030795       0.00005812      -6.16600138
Si      15.73870127      21.21746707       3.16787258        0      -0.83362165       1.69106854       0.75370521       0.00418287       0.00095343       0.01441006      -6.12811762
Si      12.65817084      11.78418803       2.57120310        0      -0.68990092       0.49838792       0.64880261      -0.00898228      -0.00396968      -0.01079834      -6.22584063
O       15.79852601       7.49251118      -5.11178223        1      -0.83520869      -0.60311495      -0.71176994      -0.00662741      -0.01839244      -0.00021257      -8.61094415
O        5.20045568       6.34719955      18.14551664        1       0.37351550       0.71437296       0.01807787      -0.00490182       0.00121495       0.00188618      -8.44388092
O       -1.48630434      16.59941224       5.07423507        1       0.60855221       0.16019914      -1.01220750       0.00126624      -0.00831570       0.00231189      -8.62203252
O        3.98585555       7.14228512      21.02343703        1      -0.48187567      -0.62342653      -0.28696826       0.02004327       0.00633809      -0.01407257      -8.56905353
O        2.12049762      16.04224959       9.51553482        1      -1.38882365      -1.30081497       0.41250239       0.00929682      -0.00546533       0.00915127      -8.65877569
O       -1.09770847       6.60502076      -1.09776248        1      -0.84417296       0.73386167      -0.33221129      -0.00610030       0.00154847       0.00876030      -8.56586349
Si       5.10258794       9.34804652      12.61601824        0       0.75789850      -0.54466266      -0.04607142      -0.00531304      -0.00505620      -0.00076221      -6.08377415
Si       5.74086657      14.06567499      10.83645713        0      -1.38986262      -0.05046985       0.54726752      -0.00021277      -0.00310133      -0.00934601      -5.74151951
Si      10.06711167       7.81331046       8.87175061        0       1.06328172      -0.28759213      -0.20208511       0.00854737       0.00037531       0.00136505      -6.14497906
O        2.42735641       1.33366408      -3.81730659        1       0.61140894       0.46081213       0.22787695      -0.00248737       0.00366816      -0.00636321      -8.65233982
O       -1.56299437      -4.13200554      11.35022235        1      -1.48091462       0.99156391       0.33860298      -0.00792682      -0.00733009       0.01373108      -8.54550350
O        2.69780082      12.26650585      16.35954618        1       0.12263115      -0.22941381      -1.13511239      -0.01049075      -0.00801507      -0.00015184      -8.73196924
O       16.76020682       5.96526301      12.07112681        1      -1.56085605       1.27153216       0.26327504       0.00050014      -0.01124267      -0.00453949      -8.66765869
O       10.62168648      16.21891255       5.19271871        1       0.73107937       0.82925387       0.24339421      -0.00496712      -0.00127335      -0.02466653      -8.59717643
O       -1.38808807      10.98483595       1.34882068        1      -0.64824392      -0.14214824      -1.39399257      -0.00245561      -0.00705539      -0.01007129      -8.56166399
Si       1.58125046      14.66162111       2.63191306        0       1.14293220       0.59464970      -0.94876734      -0.00488999      -0.00644601       0.00034863      -6.18414789
Si      -2.63553054      20.18090739       4.10997758        0       0.60262279      -2.27078568       0.22373950       0.00034318       0.01165315       0.00245669      -6.26517874
Si       2.74789005       8.02354317      -1.25468570        0       0.53322114      -0.36053258      -0.01146938       0.00958992      -0.00436054       0.00782356      -6.18675429
O       -0.38252401       2.31940753      10.86728177        1      -0.09381587      -0.92158241      -0.36341450      -0.00484729       0.00235635       0.01347311      -8.78720415
O        9.86546341       2.20791893       1.29249429        1       0.02537400      -0.76144035      -0.08187195      -0.01149979       0.00342686       0.00213059      -8.57474029
O       14.94487894      17.80629666      -2.59248490        1      -0.52836597      -0.13084204       0.46641759      -0.00374110       0.00540237      -0.00496604      -8.56752861
O       -5.77223255       0.34496502      13.92280039        1      -1.15988703       0.58580901      -1.06178201       0.00318461       0.00243688      -0.00279364      -8.62804449
O        4.06807313       8.07894234       5.43034016        1      -0.46319206       0.92586982      -0.39550731       0.01236561      -0.00089235       0.00222355      -8.46755350
O       -2.20717340      10.78316945      14.61077167        1       0.33251709      -0.23113034      -0.75259392       0.01130031       0.00872255       0.02124397      -8.62217319
Si       5.71338338      14.59130509      13.95147148        0       1.67752833       1.79526333       0.07175849       0.00080198       0.02097336       0.01382691      -5.83934599
Si      -5.28819573       9.71236525      11.20820885        0       1.17037650       0.32425068      -0.72036757      -0.00388788       0.00073417      -0.01280989      -6.25670344
Si      10.07076142      17.05488433       6.47337088        0       0.92286130       0.86921121      -1.58606397       0.01143239      -0.01879744      -0.00154378      -5.79069239
O       -2.51389213      15.37470467       3.05198240        1      -0.35767451       0.34980233      -0.83484582      -0.01372626       0.00677614      -0.01311901      -8.65748394
O       -2.64355978       8.19907342      14.00346718        1       1.17603646      -0.16192048       0.47329592      -0.00210344      -0.00629133      -0.02337940      -8.65217578
O        0.82979795      17.69687647      37.41097901        1      -0.10772755      -1.46207354       0.12906377      -0.01264929       0.00766556       0.02117446      -8.63988054
O        3.09769235       9.58125844      20.71436203        1       0.24899144      -1.23088898      -0.35460390       0.01238878       0.00182325      -0.01280175      -8.50037563
O       -2.30831999      21.71091440       7.56812768        1      -1.28955533       0.39542777       0.49766277       0.00487970      -0.00270188      -0.01477613      -8.48673999
O       -5.49129443      11.41502476      14.21176870        1       0.42743077      -0.84871062       0.25470955      -0.00621563       0.03080595       0.01630631      -8.59121311
Si      12.07525143       4.67864062       3.60012272        0       0.29136254       2.72405750       0.75592371       0.01466205       0.00209079      -0.00785844      -6.09370285
Si       5.60556459       7.26332854      -0.32086260        0      -0.37440030       0.41353181       2.62643937       0.01357073       0.01493559       0.00746140      -6.25826889
Si       2.41555000      -0.03362618       2.67413731        0       0.21053435      -2.28510179       1.67168133      -0.00809484       0.00585306       0.00031117      -5.93520838
O       22.33683937       7.21485181       2.50295188        1       0.72308503       0.26448195      -1.20831333      -0.00047474       0.00361779       0.00742009      -8.55176675
O       10.67485888      -0.83729436      11.19750399        1       0.69971504      -0.42581884      -0.14099740       0.00428874       0.01764891       0.00029907      -8.46910131
O       18.38173316       6.65358889       3.17295783        1       0.99148924      -0.68831439       0.58998172      -0.01217932       0.01223884       0.01478965      -8.64509046
O        2.26152376       2.16885818       9.82883479        1      -0.29133751       0.35252331      -1.33425570      -0.01333363       0.00470701      -0.00020379      -8.56400907
O        5.27543211      13.60653547       1.65639742        1       0.33648665      -0.10788760       0.28961566       0.01300108       0.00675282      -0.01824333      -9.43229377
O        9.79734933       0.75519762       7.98470191        1       0.10103804       1.60930689       0.19082944       0.00139075       0.00954864       0.00915700      -8.60427368
Si      14.33976160       7.83190775      10.54909173        0      -0.03156765      -0.10979594       0.15438317      -0.00163626      -0.00778703       0.00676040      -6.17330271
Si      11.58070739      -5.11646382       7.01156059        0       1.45754704      -0.10029935       0.33382325      -0.01060140      -0.02344380      -0.00758850      -6.28484875
Si       7.41390556      11.66071476       9.62849995        0      -0.79565097      -0.12362185      -1.62920055      -0.00848551       0.02502999       0.01186064      -6.22557026
O       13.59594696      -0.12566247      10.29282674        1       0.63936811      -1.11503859       0.94109226       0.00342453       0.00197202       0.00834599      -8.61674869
O       13.49143905      -6.73575672      11.42358087        1      -1.21392566       0.35393680       0.09226004      -0.00402784       0.00294045      -0.00270199      -8.55080068
O       11.22951964      -0.75544997      24.74955999        1      -0.02807615       0.28618487      -1.20021076       0.00005701       0.00660866       0.02033362      -8.56148803
O       10.44566871       6.41370281       6.11755331        1      -0.08689929       0.21662811       1.12025020      -0.00431289       0.00327255       0.00543910      -8.50303781
O       13.21875193      -1.56241451       6.20148848        1       0.16924231       0.39175532      -0.43536522       0.02259292       0.02258807       0.00664699      -8.39437568
O        9.11763860       7.88665088       4.52718989        1       1.60086083       1.03384759       0.25509598       0.00084949      -0.01194635       0.01010308      -8.39063346
Si       0.27998241      10.97323203       7.88675469        0       0.24919865      -0.20374471       0.83323365       0.00414298       0.00076279       0.00768872      -6.08935696
Si       2.45318911      12.01871135       3.96833898        0      -0.10399626       0.79743601       0.18342614      -0.01678443       0.00719395       0.00374925      -6.11355978
Si      12.83007924       6.88239809      -2.47491482        0      -1.28633784      -0.98416277       0.72678507       0.01358071       0.00747802      -0.00023286      -6.22796971
O        5.58010906      10.90875537      12.40620124        1       0.07455300       2.01554285       0.04342757       0.01882703      -0.00774707      -0.00727826      -8.40995347
O       21.25493903      20.33815616      12.09679354        1      -0.16046222       0.71586797       0.58955616      -0.02155599      -0.01103181      -0.01481009      -8.54225385
O        1.12663201      11.16847511       9.31321759        1       1.07919139      -0.37559283      -0.20157446       0.00008668      -0.00358666       0.00945525      -8.53140438
O       11.18075369       6.93890178       1.02423792        1       1.08592977       0.68520567      -1.32405910       0.01372924      -0.00043342       0.01587819      -8.64083612
O       -1.15189321       9.26561019      -0.58003362        1      -0.40846575       0.26095377      -0.11872390       0.01637252      -0.00403517       0.00207219      -8.46187007
O        9.12906414       9.10011205       1.86998627        1      -1.65830745       1.37637329      -0.24956967      -0.00715134       0.01047600      -0.00133016      -8.40073049
Si      16.21106800       5.98083624       5.42586528        0       1.93217635      -1.07222259      -0.92562800       0.00130855       0.00831732      -0.01235577      -5.73824078
Si      12.37936530       9.29410742      15.18078117        0       1.27598494      -0.41377134       1.00956852       0.01186696      -0.01609811      -0.00571545      -6.26514965
Si      10.49645466       2.94801274      10.76844123        0      -1.23177859      -0.99203433      -2.04391352       0.00279109      -0.00242641       0.01392776      -6.17545134
O        2.36002093       1.37394873      14.40411396        1       1.00316077       0.30005210       1.13071218      -0.00105008      -0.02526259      -0.01311386      -8.31885278
O       21.68158006      12.18261518      15.12169456        1      -0.28488757      -0.25169740      -0.04509387       0.01471044      -0.01786250       0.01595819      -8.01565111
O       11.66866276       7.98325697       8.66226572        1      -1.86138986       0.45360487       0.32671721       0.00669247      -0.00536609       0.00780300      -8.49785125
O        1.35152740      -2.17811578       5.85793007        1      -0.59359351       0.67820013      -0.07291814      -0.00000092      -0.00683978      -0.01741579      -8.55906904
O       12.22383877       3.18106271       2.97270169        1      -0.02625927      -1.61764784       2.30949306       0.01331510       0.01168165       0.01706573      -8.62194669
O        9.27711065       8.66277266       9.99002670        1       0.43436213      -0.11774343      -0.35379798      -0.00064775       0.00037541      -0.00905868      -8.52568281
Si      14.72309613       8.51114525       6.32235304        0       0.37291296      -0.43553422      -0.81299536       0.00546221      -0.00468847       0.00450597      -6.25475508
Si      -2.63897011      11.43733327       8.28077305        0      -1.83718725      -0.91543991      -0.54738821       0.00250175      -0.00638433      -0.00161204      -6.20023113
Si       4.41055487      12.02972678       1.62668509        0       0.05331416       0.55630084       0.21699561       0.00308633      -0.01230282       0.01635247      -5.77665097
O        8.34743555      17.14490159      10.24476855        1      -0.98122404       1.08673994       1.35977699      -0.00204423       0.00271957      -0.00098278      -8.58553636
O       22.05947361      13.57057895      17.11800694        1      -0.32656006      -0.67099483      -0.43879089       0.01292193      -0.00822836      -0.00380082      -8.38689601
O       18.12624743      -2.11353132       7.75427151        1      -0.71068420      -0.24609080      -0.09595908      -0.02384813      -0.00788048       0.02386634      -8.57769620
O        9.15625226      23.30913352      14.46885234        1      -0.83766165       0.02416522      -0.33605910      -0.00174160       0.00545618      -0.01032168      -8.70318115
O        3.85493297      25.13972825      -8.75112485        1      -0.25770198       1.53715185       0.84313246      -0.02109651      -0.00973219       0.00648044      -8.69749153
O        7.63107375      15.19977489       8.27980430        1       1.18943471      -1.33296401      -0.90584171       0.00704281       0.00240475       0.00226302      -8.69798028
Si      10.32214874      10.61566044       6.16364981        0       0.88769379      -2.36845638       0.73354142       0.00075654       0.00347191      -0.00621895      -6.17112356
Si      -6.00166554      14.82067977      24.06232550        0       0.12664410      -0.01460727      -2.03945614       0.00355858      -0.00713544      -0.01947012      -5.88244444
Si       7.37330917       5.87598420       1.63391068        0       0.66029442       1.05815538       1.26443534      -0.00024911       0.00281298      -0.00292097      -6.26266867
O        8.42887615      17.36055843       6.25413886        1      -0.31106621      -0.94453923       0.32426169       0.02004439       0.00260124      -0.00784457      -8.30145109
O        3.47983959       9.41667734       1.78837341        1       0.42063736       0.92099700      -2.73079329      -0.00281246      -0.00491197      -0.00832282      -8.67609060
O       10.56861201      16.66384358      -2.86052313        1       0.74552929      -0.63966994       0.36822437      -0.00425220      -0.00369693       0.00133957      -8.73069227
O       11.14454390       9.39836082       5.43771276        1      -0.81056985      -0.39052334       0.87079917      -0.01058430      -0.01809594       0.00728198      -8.57436597
O        8.57219054      20.57722559      10.14193729        1       0.05268225       0.31333932       0.42806341      -0.00568002      -0.00138301       0.00138225      -8.53384292
O       -5.94167519      13.42976183      12.32979309        1       0.30470289      -1.03431663      -1.14383796       0.00033966      -0.00388944      -0.00973165      -8.20820892
