72
Lattice="9.8268 0.0 0.0 -4.913399999999998 8.510258437908922 0.0 0.0 0.0 10.8104" Properties=species:S:1:pos:R:3:spacegroup_kinds:I:1:momenta:R:3:forces:R:3:energies:R:1 spacegroup="P 31 2 1" unit_cell=conventional energy=-559.0971069335938 stress="-0.05183189734816551 -0.00434758560732007 -0.004054331220686436 -0.00434758560732007 -0.017834320664405823 0.002486275741830468 -0.004054331220686436 0.002486275741830468 -0.022074609994888306" free_energy=-559.0971069335938 pbc="T T T"
Si      12.69400873       2.29071654       8.36049593        0       1.08098600      -0.39543614       0.45036030      -0.01355334       0.02159673       0.01170430      -5.93417650
Si      -4.87239418       5.65120837       3.08266750        0       0.08354411       0.43442010      -0.58289556      -0.00647880       0.00181879       0.00808039      -6.20525700
Si       7.74956107      13.60059420       7.24919509        0       0.07918759       0.17342045       0.14121664       0.01002671      -0.01896907      -0.02769288      -6.17695862
O        3.78365716       4.55337753       3.32896521        1       0.84301715       0.35153418       0.02130284       0.00188467       0.00660858       0.02555694      -8.54709041
O       -5.49811016       7.10783329       2.70159180        1       0.35085996      -0.10595362       0.18041436       0.00415146      -0.01499973       0.01322948      -8.73159826
O        3.84285365      10.60360160      -0.87325207        1      -0.81985930      -0.28234168      -0.21882693       0.00169472       0.01992294       0.00335690      -8.42263305
O        4.39874569      14.75182598       2.01589858        1      -0.32770792      -0.63017928       1.31387725      -0.00276475      -0.00901172       0.01317666      -8.71336353
O       -4.34595470       5.81567539       9.66013089        1      -0.01129371       0.09544804       0.27182846       0.00335521      -0.00236015      -0.01517908      -8.43506134
O       -2.77460518      12.57851633      15.92895338        1      -0.33759445       0.39485267       0.11767400       0.00658657       0.01839380      -0.01339772      -8.58731735
Si      10.50873477       4.52768963       4.53957330        0      -0.46293406       0.34698744       0.12236507      -0.01441768      -0.00762239      -0.01315774      -6.14165884
Si       0.03116073       0.05703359      17.88489396        0       0.18171000       0.57362856      -0.75557251       0.01047268      -0.01382302      -0.01097671      -6.15979058
Si       7.54805732       1.51412419      10.84819284        0      -0.87727557      -0.34270651       0.29861184      -0.01678203      -0.00340652      -0.01650026      -6.24926478
O       -4.02942747       5.10006975       1.78545538        1      -0.70918865      -0.10463757      -0.64398561      -0.00615962       0.03401259      -0.01908436      -8.61080778
O       -8.76930098       8.49438461       6.23738596        1      -0.11449028      -0.82285518      -0.36655210      -0.00859635       0.01574174       0.00551374      -8.71735847
O       -0.84936338      -2.87030719       6.34241650        1       0.26570005      -0.13272332      -0.74791031       0.02388719      -0.02499976       0.00282757      -8.59473026
O        5.95320439      -2.11155109      10.33242258        1       0.46945034      -0.67076899       0.61504449       0.00032203       0.00843602       0.00697444      -8.64263523
O       11.99053520       9.97072750       4.48793153        1       0.58963622      -0.08222906       0.35517058       0.01834366       0.01423781      -0.01745775      -8.65226209
O        5.98754975       7.53204174       6.36694238        1       0.23190535      -0.40417715       0.38046072      -0.01863383       0.00864017      -0.03961553      -8.67244518
Si      -6.48515299       3.31460800       4.28894587        0      -0.33491451       0.40440541       0.21122318       0.00028630      -0.01314241      -0.01093269      -5.98010641
Si      -4.25415872      18.64337865      -6.91912334        0       1.12146452       1.22522932      -0.43955961      -0.00215631       0.00062281       0.02086090      -6.12355906
Si      -3.03303441       5.56971321      -2.06800588        0      -0.84318679       0.04764298       0.08621493       0.00667589      -0.01439264       0.02165991      -6.16084820
O        3.50114439       6.88828267      10.83178309        1       0.28652705      -0.10304674       0.68464737       0.02199583       0.00225186       0.00917538      -8.56936967
O       -5.85369134       2.46160445      -1.19504444        1       0.27202456       0.42004450       0.15077828      -0.02744609       0.00938840      -0.01942937      -8.29332197
O       -0.14196493      25.47109896       0.73073130        1      -0.47913526       0.43144377       0.38160623      -0.02143359       0.00878491       0.00066251      -8.70827186
O      -16.49706926      26.28158528       1.39307511        1       0.87036825       0.05970903      -0.14072305      -0.00194538      -0.02125546       0.01374859      -8.60056293
O        5.64193370       2.61636929      13.44625115        1       0.16711199       0.06472134      -0.48363649      -0.01719653      -0.01232815      -0.00698637      -8.58925760
O       -3.93559565       5.68763898       4.45823622        1       0.64969353      -0.15975659       0.08416222      -0.03268039       0.01600653       0.01569223      -8.76620424
Si       9.78268052      15.79388626      10.01248128        0      -1.48611906       0.80026420      -0.61248407       0.02429846      -0.00463883      -0.00749732      -6.10734278
Si      -5.68702040      12.18007935       9.69525898        0       0.11618836       0.66636126      -0.43310694      -0.00150903       0.01913701       0.02717323      -6.07097489
Si      -2.18833015      11.34293025      10.66171216        0      -0.07867351      -0.35073940       1.06080422       0.00474798       0.00955990       0.01076367      -5.93043381
O       16.39746089       2.78086582       0.35053573        1      -0.15114676      -0.35059188      -0.06075124      -0.01005831       0.01141077      -0.00890262      -8.53410995
O        9.61033143      16.66336313      19.44813297        1      -0.78944137      -0.63486605      -0.01582877      -0.00235746      -0.03674728      -0.02149285      -8.47664249
O       -0.28574824      11.01569197      15.77060031        1       0.09485878       0.62902642      -0.11219431       0.01485902       0.00196080      -0.01908842      -8.47345197
O       -0.98529522       7.04111803      17.39519075        1       0.11568848       0.04512135      -0.35231367      -0.00190111       0.00635792       0.00492358      -8.60998094
O        0.54144593       6.16530867       4.64138649        1      -0.30009846      -0.75963564      -0.36058819      -0.01867139       0.00515720      -0.02096176      -8.65867078
O       -1.97874096      11.96755100       7.26528855        1      -0.00776595      -0.42057985       0.69204355       0.01140119       0.00337726       0.00265521      -8.49627817
Si      10.55115758      -2.55691292       6.05323770        0       0.26839687       0.80291590       0.86794605       0.00303437      -0.00912314       0.01341250      -6.09322363
Si      11.41855735      -4.88180390       1.73232088        0      -0.13070687      -0.12288749       0.47210120       0.01092310       0.01388607       0.00918224      -6.09431273
Si      10.46627898       7.97917307      -0.61224505        0      -0.75317316       0.21288856      -0.26200944      -0.01544557       0.00529521       0.01501127      -6.21520525
O        4.84589851      12.67778772       0.29699402        1      -0.20594598       0.03787791      -0.07784463       0.01134464       0.00987020       0.00827062      -8.51039732
O        7.70606312       4.57774121      -1.21344193        1       0.40845540      -0.62699433      -0.68269948      -0.00145364      -0.00766863       0.00384509      -8.56294429
O        7.40197779       7.07808144       8.78012006        1      -0.04662641      -0.29069215       0.17218680      -0.02082129      -0.01086071       0.00202396      -8.66277444
O        4.78527926      16.67719565       8.81561662        1      -0.83827936       0.16013383       0.56304854       0.00207879      -0.02374326      -0.00925726      -8.52978361
O       12.51056126      21.39751308       0.37046267        1      -0.25539008      -0.10691340       0.17310265       0.01630429      -0.00514053       0.02246583      -8.64597023
O        5.34623199      10.14355721      -3.90977311        1       0.01843655       0.40001727       0.12295664       0.00172597      -0.01418330      -0.01416572      -8.62104404
Si      19.04164065       2.91066472       6.85274549        0      -0.25963885      -0.41223649       0.52478633       0.00628267      -0.01202545       0.00840546      -6.17615706
Si       9.38368906       4.63141339      12.63838992        0      -0.37908110      -0.30572158       0.20616071       0.01957692      -0.01112415      -0.00316669      -6.18389231
Si       2.51641192       5.72838333      -0.51748372        0       0.48317514       0.51173511      -0.53493808       0.00373921      -0.00011977       0.00088438      -6.09735304
O        8.50946665      16.87181550       6.17795896        1       0.38084940       0.87583399       0.07379039      -0.00390685       0.00575306       0.01492776      -8.62301290
O        1.46781119       5.93206176       6.98693404        1      -0.15543334      -0.70707446       0.20694668       0.00746349       0.00010501       0.01408825      -8.47824371
O       -6.78478161       5.42416798      19.62318691        1       0.14412063       0.24506514      -0.32128138      -0.01298344      -0.00657513      -0.02080357      -8.47310436
O       10.40782245      -0.32546396      11.22730025        1       0.36257197      -0.20527442      -0.28633760       0.02289370      -0.00425179      -0.00538039      -8.48202741
O        0.62266298      21.14428113       2.96164527        1      -0.31995370       0.81985019       0.41133616       0.00770858       0.01260687      -0.00434408      -8.58768404
O        1.58529874      13.61689569       7.18216105        1       0.57360225      -0.84337473      -0.37824132      -0.00354907       0.04190148       0.02133879      -8.71884811
Si      -4.34953242      15.44580460      -4.72283623        0      -0.50817077       0.38262108      -0.56220915       0.00580430      -0.00471780      -0.00469662      -6.10771710
Si      -0.64003031       7.84660420       2.16904968        0       1.26915754      -0.36407433      -0.70624774       0.00308575      -0.01728752      -0.01410565      -6.13083845
Si       3.51239622      16.43782997      -2.92648079        0       0.01686935      -0.47762377      -1.09432846      -0.00224610       0.00282068       0.02839744      -6.19174296
O        2.78156620      10.74822205      -3.90419521        1       0.55738573       0.58385457      -0.49180109       0.00775284      -0.01975974      -0.00024623      -8.70447099
O        4.66433467      12.36030615      -2.67019996        1      -0.89436098       0.45519081       0.20719051      -0.00104603      -0.00870545       0.02160730      -8.42835271
O       -6.91332294      17.90871941       7.55749553        1      -0.22450392      -0.23321714       0.69859798      -0.01050905       0.01925310      -0.00214623      -8.70067823
O       -7.12571545      16.66776041      13.27007431        1       0.33177771      -0.07490353       0.10094165       0.00442122       0.01453395      -0.01782188      -8.65374506
O       -3.30060725      11.03724876      -1.35956538        1       0.34087764      -0.13290771      -0.98397497       0.02639943       0.00131876       0.02809180      -8.30497682
O        0.46033062      18.02363031     -18.98162215        1       0.81335341      -0.33757601       0.84661182      -0.01450721       0.01465633       0.00776972      -8.53830755
Si       2.38663229       9.42091904       6.00112288        0      -0.38779306       0.08278981      -0.54706609       0.00942192      -0.01007639      -0.02848038      -6.01753241
Si       4.52620208       8.43611672      12.56710017        0      -0.03035713      -0.66336198       0.27640479       0.00111122      -0.03773674       0.00924720      -6.22674376
Si       6.96543216       9.65429117       2.44333832        0      -0.70899636       0.69015257       0.11251626      -0.00773162       0.00753517      -0.01001179      -6.24829823
O        9.98068363      25.68049082       3.36577646        1      -0.77537716      -0.65165844       0.42090296      -0.01376744       0.01812865      -0.01295770      -8.67597997
O       11.73706465       8.93449731       9.92660073        1       0.45582785      -0.34099228      -0.38623207      -0.03206079       0.01660770      -0.02261122      -8.48496377
O       -0.43270204      20.80874308      16.29789447        1       0.46331363      -0.58264021       0.26240985       0.01313000      -0.02223270      -0.00901140      -8.68753374
O        2.57383551      19.08411601      14.44680908        1      -0.03525364       0.81220159       0.11895414      -0.00254816      -0.02094085       0.02074008      -8.57023799
O        7.46093606      10.36561242      22.70207063        1      -0.17443502      -0.16697996      -0.41844122       0.00357227       0.01335315       0.01393954      -8.63775384
O       12.92535597      29.41767593       2.26584232        1       0.45621812       0.16293739      -0.39811683       0.01455176       0.00291902      -0.01382571      -8.68739784
