162
Lattice="14.740200000000002 0.0 0.0 -7.370099999999997 12.765387656863382 0.0 0.0 0.0 10.8104" Properties=species:S:1:pos:R:3:spacegroup_kinds:I:1:momenta:R:3:forces:R:3:energies:R:1 spacegroup="P 31 2 1" unit_cell=conventional energy=-1259.3150634765625 stress="-0.030446277931332588 3.786173010666971e-06 -0.013108938001096249 3.786173010666971e-06 -0.04184195399284363 -0.0008178339921869338 -0.013108938001096249 -0.0008178339921869338 -0.025970131158828735" free_energy=-1259.3150634765625 pbc="T T T"
Si       8.22162304       0.95574675       1.25523286        0      -0.75094374       1.94617293      -0.48159400       0.00329862      -0.00145116      -0.00333084      -6.17695290
Si       3.54960212       6.42585920       0.67935624        0       0.54050912       0.47289253      -0.33784696      -0.01004389       0.00154306      -0.01084985      -6.09998089
Si       7.58659828      -8.33287389      -1.43018857        0       0.18755516      -1.56146999       0.18439460       0.00166073      -0.02342440       0.00530734      -6.23023325
O        6.90086762       1.19571849       0.32038700        1       0.02298809       1.47874515      -0.11821987       0.00137648      -0.00163379       0.01153716      -8.47900856
O        1.09178655       4.55571994       2.12718312        1       0.30940050      -0.39372637       1.57253239       0.01505455      -0.01445124      -0.01294563      -8.68399990
O       10.09364355       1.17477325       8.70049278        1      -0.46036068       0.88634992      -1.65334269       0.00056984      -0.00210765       0.00873993      -8.63318479
O        4.85399193       1.48937759       2.04101373        1      -0.42505274       1.18741038      -0.98148374       0.00898299      -0.02362075       0.01483455      -8.55508554
O      -14.12209604      14.62139176      13.40056381        1      -0.09261825       1.05151448      -0.23570741      -0.00242031       0.00810675      -0.02385254      -8.56788576
O        0.69173954       3.38008577      -0.29793932        1       0.07548088      -0.56887600      -0.73125703      -0.01048973       0.00465309       0.01339833      -8.62767494
Si       8.25827163      -1.57059859      13.73610295        0       1.26972436       2.68359318       0.49595708       0.01197404      -0.00443788      -0.00152010      -6.30378395
Si      -5.11223376      -3.77442237       1.34348525        0      -0.89041271      -0.65015109      -1.54004593       0.00940995       0.02709570      -0.01705551      -6.17324072
Si      -1.81240102      10.60017344      11.05168335        0       1.12027534       0.66522162       0.73910861      -0.01474849       0.01107045       0.00628574      -6.22276026
O       -0.69615394       0.37235434      14.09316537        1      -0.00389346       0.42555906       0.50505735      -0.01320857       0.00304928       0.00862794      -8.44454563
O        5.21552951      -0.79641986       1.00025937        1      -0.69703916       0.98951630       0.70155740       0.00763133      -0.00533918       0.00488907      -8.48705375
O       -4.97505012      18.87914413       6.38920329        1       0.88043042       0.15107655       0.48506169       0.00655851      -0.00037694      -0.00306138      -8.53397548
O        2.73714844      11.32062454       8.20223022        1      -0.46281091      -0.70198032      -0.20330810       0.00941518       0.00932880       0.00157720      -8.86636388
O        7.97785473      -6.77555312      15.20959676        1      -0.04451506       0.78403220      -0.28354051       0.01980568      -0.01030973       0.01268070      -8.63110769
O       11.03872656       4.95115483      17.07067321        1      -0.50647207      -1.01688547       0.72863073      -0.00921728       0.00660203       0.00886548      -8.59580743
Si      -8.85313560       0.10604829       7.44094419        0      -1.06829873       0.54671772      -0.31983106      -0.00479008      -0.01940416       0.00539158      -6.17776352
Si      -9.61584333      19.44155725       2.69009183        0       1.54957951       0.13757579      -0.87370810       0.01397711       0.01114716       0.00065602      -6.07630640
Si       5.83150700      11.54117894       0.85102817        0      -2.19096050      -0.98629804       1.72978358       0.00054033      -0.01738887      -0.00253404      -6.24356848
O        5.58093646      -7.01417586       3.89665927        1       0.07513404      -0.03182141      -0.05983792      -0.01055291      -0.02152485      -0.01356682      -8.52947509
O       -0.50988860      11.05458797      -7.09593504        1       0.56867258       0.11241899      -0.28967228       0.00457533       0.00041293      -0.00854115      -8.57367265
O       -5.56992010      12.52704301      -8.09539356        1      -0.53285223      -1.54912716       0.17515579       0.01843157       0.01709312      -0.00836726      -8.72169912
O       11.86856885      19.93063851      10.38223724        1       0.15353205       1.39396171       0.68019803      -0.01024944       0.00836624      -0.02144338      -8.62315834
O        4.84585828      12.89094258       7.65194169        1       0.67460509       0.44987694      -0.75406469       0.00909355       0.00893366      -0.00247131      -8.68970335
O       -4.33024520      16.27705797       6.39715605        1       0.61564163       0.64536212      -0.53734756      -0.01895227       0.02420458      -0.00844871      -8.61146820
Si      -2.54469629       3.44597949       9.92959374        0      -0.84370892      -0.38932016       0.20068142       0.00729617       0.00820149      -0.00838274      -6.15607601
Si       3.21246182      12.78697949       7.68779153        0      -0.61424689       1.57014047       0.13669748       0.01281346       0.01469861      -0.00231584      -6.20646292
Si      -2.62402156      14.12884333      -7.14604489        0      -0.69797691      -0.99875296      -0.91269862      -0.00544113       0.00298347       0.01242256      -6.30858618
O        4.51169347       1.02223387      -3.30387521        1       1.08348826      -0.10904726      -0.05736387      -0.02160750       0.00891647      -0.00327414      -8.63632381
O       -1.11098753       4.74883727      -4.72724064        1       0.22337162      -0.21139094      -0.26875838       0.00894183       0.01017834       0.00578242      -8.55570638
O        0.68669874      16.65840569      15.27254769        1       0.47267028       0.20264933       0.04170955       0.01846720       0.00745243      -0.00609785      -8.59616935
O       -0.96672496       0.98165520       5.69196356        1       1.16947831       1.01852880      -0.22685248      -0.02042332       0.01964898      -0.01088184      -8.53862178
O       -9.91810167      15.42577208       6.86576622        1      -1.28790599       0.04314730       1.12211933      -0.00393774      -0.02386639      -0.00269870      -8.62416446
O       11.83468221      13.78049775      -0.63176810        1       0.46074028       0.57389044       0.79755678       0.01762001      -0.01890215      -0.01054256      -8.62752664
Si      -2.88009726      10.33019758       8.39988581        0      -0.45865620       0.23105728       1.73037987      -0.02565134      -0.00437859       0.00161417      -6.22784621
Si     -10.76722958      13.89441398       0.76294000        0       1.07064127      -0.83062778      -0.02230336      -0.00736528       0.00697841      -0.01283624      -6.24290520
Si      -5.03918903      15.30182190       5.30949683        0      -0.18960481       0.15102893      -0.00922201      -0.00435636      -0.01188003       0.01334291      -6.27599579
O      -10.67319802       9.92401113      -6.56795204        1      -0.13263946       0.37252201      -0.55870044       0.01932195       0.00255814       0.00033019      -8.62054288
O       -0.35182883      10.74360544      -0.47609214        1      -0.22314491      -0.64535495      -1.72505864      -0.02404392      -0.01325393       0.01075692      -8.51383293
O        8.15251440      -0.63293812      12.42248671        1      -0.80906561       0.34415326       0.91555267      -0.00419920       0.00920087       0.02432613      -8.52132785
O        3.46589867      16.48330645       9.05092761        1       0.53852237      -0.14504939      -0.41726030       0.02165084       0.00355898      -0.01141661      -8.65660179
O      -11.66156183      23.57970188       7.78531748        1      -0.18250574       0.84686928      -0.30572904       0.00347272      -0.00270889      -0.00359730      -8.72713268
O        2.73995960      16.51026798       2.23111942        1       0.32632938      -0.77087397       0.11225727      -0.02236298       0.02010344      -0.00782606      -8.60390747
Si      -5.89275875      10.64004684       7.61798463        0      -1.40866558      -1.12135238       0.46361123       0.01367463       0.01772816       0.00933883      -6.17741638
Si     -11.62209595       6.53817162       4.98921825        0      -0.36945390       0.96469274       1.24852424       0.01241565       0.00158332       0.00551992      -6.16403681
Si       2.89425090      12.99036799       4.65133421        0       0.57728288      -0.21595950      -0.40443220      -0.01405833      -0.00433210       0.00452443      -6.28266627
O        1.25637200       9.66427746      13.25577529        1       0.59406447      -0.19648267       1.29799845       0.00203826       0.00714031      -0.00469364      -8.62000740
O      -10.31018171      12.34641874      11.51612913        1      -0.51366012       1.55007406       1.27813959       0.00184634       0.00011329       0.00898732      -8.63421619
O       -5.02980261       1.24187475      22.26196550        1       1.29782880       0.20252529       0.63217034      -0.00340864      -0.00733265      -0.00718421      -8.60557783
O      -12.31207678       7.94664018      15.33416101        1       0.44490403      -0.09269207       0.09710835      -0.01232538       0.00414175       0.01234983      -8.51789701
O        5.57588465      -1.25229450       8.24098270        1      -1.12039518      -0.64708230       0.04554471      -0.00032172      -0.03141190       0.02047386      -8.58852422
O        8.04212260      14.76425724       1.89094362        1       1.58349049       1.08589110       0.92567188       0.01285248       0.01650672       0.02078369      -8.65013731
Si       9.40971024       9.01534309       0.59125797        0      -1.12938850      -0.68531145      -1.98457407       0.00227610      -0.00409113       0.00830895      -5.86322409
Si       3.65468325       3.77979138      10.57317846        0      -1.08637933      -1.32153895       1.89095861      -0.00329288      -0.03407910       0.01356904      -6.08740479
Si       4.22835438      -3.55995169       2.46815568        0      -1.93221977      -0.62685359       0.54722668      -0.01019092      -0.02478697      -0.01815039      -6.01024538
O       16.75643548      11.93425441      -6.99605204        1       1.57734883      -0.93444537       0.57608918      -0.00004607      -0.01001896      -0.00418729      -8.53072202
O       19.17232477      12.54159031      -6.35075054        1       1.72071240      -0.50007997       0.73093610      -0.00070474      -0.00144657      -0.00122292      -8.48386085
O        3.44335335       9.05949228       6.85778994        1      -1.21676142      -0.13643577      -0.49088085      -0.01965529       0.02704218       0.01929456      -8.38036001
O       -2.76600640       3.40236161       4.30803142        1       0.66958080       0.73941869       1.84731525       0.02307557       0.01938314      -0.01105660      -8.54792249
O       -6.66171885      12.03368642      -3.44117645        1      -1.35443850       2.28051363      -0.39687090       0.00385741      -0.00157472       0.01014010      -8.64269865
O       17.66913880       2.93627259       0.95508933        1       0.04462595      -0.61482195       0.23706616      -0.02982534       0.01802582      -0.00013021      -8.50080240
Si      10.49035526       6.71641344       9.74157116        0      -0.58149286       0.10711698      -0.74066433      -0.00162870       0.00078851       0.01347747      -6.25362641
Si       1.09289624       0.81497998      18.38281689        0       0.50623982      -1.49058801      -1.73260011       0.01091314      -0.01514655      -0.00937840      -6.24159294
Si       5.36684111       0.77142509       0.68424506        0      -0.13175101       0.82137965      -0.30182953       0.00748271      -0.00397719       0.01433911      -6.26026064
O        4.53238719       5.70831292       1.78950538        1       0.26156309      -0.55704703      -0.10079018       0.00690407       0.00560608       0.00782406      -8.44209278
O        4.16652553       5.23679422       7.90770167        1      -0.39644376      -0.01858497      -1.43006202       0.00867149      -0.00913948       0.00454734      -8.50480306
O       16.59362135       9.33922946      10.63308211        1      -0.12559410      -0.25743259       1.04245221      -0.01575997       0.01253076      -0.01349949      -8.77506244
O        4.44617371      14.56214622      12.98406642        1      -0.90924556      -0.20323988       0.21709017       0.03497252      -0.00559971      -0.01287054      -8.54794538
O       -2.66590420      19.65608096      15.93834619        1       0.57082321       0.33737151      -0.26752354       0.00966846       0.00720600      -0.00283013      -8.62378252
O        3.71312226       9.63975386       1.57438628        1       0.35822647       0.64797999       0.44803402       0.00557359       0.00041476       0.02329738      -8.61354244
Si       5.87724077       4.95739796       1.20044373        0       0.41936896      -0.53310074      -1.28614155       0.00650930      -0.00935683      -0.00158715      -6.11261421
Si      -5.24657072      10.94185719       2.63484742        0       0.72931749      -1.32956126       0.54951115       0.00916373       0.00508368      -0.00481728      -6.07772690
Si       6.02776272      12.59721690       4.62904199        0       1.11056270      -1.17136520       1.17475933       0.00056865      -0.00996767       0.02198122      -6.26724774
O        5.83922906      10.73873939       2.29560107        1       0.31856541      -0.13066163       0.19360336      -0.00709328      -0.02259043      -0.00280532      -8.54282176
O       -0.57681570       8.28308695     -11.52330272        1      -0.88170279      -0.95797364       0.04739037      -0.02283337       0.01680227      -0.00503195      -8.57723081
O       -6.28767350      10.07609586       3.56371715        1       0.71546484       0.24163602       0.01764830       0.00242655       0.02693692       0.00792811      -8.66990745
O        7.78479157       8.86758877       0.53338952        1       0.69254130       1.27425715       0.06086041       0.00794879      -0.00139855       0.00950217      -8.50560367
O       -2.34191617       8.95519600       7.71878358        1      -0.48482080      -0.88285915       0.59044981      -0.02898657       0.01363702      -0.00352561      -8.56440246
O        2.70551809      19.22901731      -2.61417028        1       0.03392202       0.39803947      -0.15798840      -0.01307768      -0.00893617       0.01481061      -8.61376989
Si       0.48248352       9.45295453       9.79232212        0      -0.20500924      -0.02658838       0.51219118      -0.01725569       0.01244172      -0.00534104      -6.14069754
Si      -8.69382478       6.82220283       9.91882829        0      -0.42219600      -0.97440690      -0.83667692       0.01675501       0.00605112      -0.00816287      -6.04344755
Si       5.75336813      -1.30967890      15.62553146        0       2.19232689      -0.03820936       1.81009977      -0.00880952      -0.01271969      -0.01667107      -6.19742781
O        6.00334128       3.31583013      18.86236998        1       0.26592178       0.10724280      -0.18763113       0.00806703       0.00297093      -0.00190565      -8.69314325
O        9.93170088       8.20945081      10.07809706        1      -1.75070613       0.54302434      -0.24420630       0.00683136       0.00780421       0.01466091      -8.48611677
O       12.62341172      16.70336320      10.85873273        1      -0.82521025       0.35033581       0.30850671      -0.02053874       0.01057711      -0.01525623      -8.53564870
O        2.18741795       0.88773801      19.58112318        1       0.01537022      -0.87976203      -0.98720681      -0.00924116       0.00143911      -0.00514309      -8.64795291
O       -3.99805188      14.79045372      15.00255035        1       0.12173168      -3.85521384      -1.02918502       0.00590859       0.02700242       0.00902432      -8.63249385
O        4.75159576      -0.18657031       4.15872600        1       1.09701600      -0.52901172       1.12768850      -0.01028690       0.00301659       0.00429699      -8.51732528
Si       3.32937337      17.66213424       1.21281260        0       0.75741242      -0.18313564      -2.15022752       0.01782874       0.00923986       0.00775645      -6.02600104
Si       2.17777536      10.03105258      -3.43103456        0       0.51152919       0.89829282      -0.08999922       0.01449450      -0.00354993       0.01900471      -5.84273583
Si       2.88627097      19.09515041      -4.23024315        0      -1.46458437       0.14127562       1.24117380      -0.01278328       0.01308498      -0.00200280      -6.29150540
O       -0.95003127      12.35748267      -4.80793777        1      -0.30817893      -0.62291662      -0.72687050       0.03146555       0.00708847      -0.01802455      -8.62777078
O       12.83180472      20.91212554      13.67687977        1       0.55278176       0.65908585       0.63986001      -0.00748031      -0.00736941       0.01050074      -8.58962572
O       -0.63528597      21.36170891       5.09532975        1       0.57613867       0.31430383      -0.58724846       0.01420277      -0.01882400      -0.02984543      -8.65879285
O        4.74783254      19.44409549       9.90953701        1       1.43314485      -0.65610328       0.11620372       0.00145541      -0.01539697      -0.01201056      -8.60450017
O       -4.42276056       8.40836900       1.80170235        1      -1.13560700       1.21085534       1.02632317      -0.02251890      -0.01565385       0.02019963      -8.53077352
O       -0.61871031      18.87936968       0.43626896        1      -1.08674794      -0.61680869      -0.13948429       0.01470625       0.01780231       0.01897553      -8.50337255
Si       7.09365284       9.48055627       9.97531071        0       1.36963753      -0.04327633      -1.12333392       0.02047526       0.00709119       0.00996886      -6.13736016
Si      -6.02989670      16.01439642      11.98305587        0      -1.91546428       0.66606060      -0.70563088       0.00162876       0.00801543       0.00507720      -6.23597723
Si      -1.15846910       6.87382376      10.59873974        0      -1.66259692       0.72817046       1.24844531       0.01700838      -0.00590865      -0.01734794      -6.25972325
O       -4.89516429       5.61014681      -0.00381824        1      -0.88594101      -0.79020229       0.32067172       0.00707948      -0.01014534       0.00943903      -8.56800973
O        6.47443571       8.21530239       9.22092383        1       1.08417931       0.36310826      -1.01103601       0.00432713       0.01399383       0.01161994      -8.61887252
O        2.54194948      13.01607876       6.22762166        1      -0.83081987      -0.12813090       0.27483121      -0.00784060       0.01544131       0.00845647      -8.64295805
O       -0.74339246      23.95014336      15.93334418        1      -0.16366442       0.42823508       0.63311303      -0.00159217      -0.01842000       0.00348178      -8.61624992
O        2.66115556      14.49837543       4.10318531        1       0.92266653      -0.18292859      -0.89032956      -0.00762257       0.01106159       0.00024581      -8.49799573
O       -0.29164130      13.71794226       8.12983622        1       0.15562711       1.02052271      -1.53962928       0.02598939      -0.02675337      -0.00066151      -8.64653575
Si      10.06772029      17.57529415       7.32028991        0       0.25810091       0.01066829      -0.01696783      -0.00661784       0.01714634       0.01170929      -6.16365677
Si       5.73171141       4.87914379       7.66595090        0       1.25238158      -0.05729032       0.64429382       0.00702544      -0.00428475      -0.00753324      -6.18408066
Si      10.97383760       2.72072927       3.22296849        0      -1.67799209       0.11404797      -1.16138875       0.01210194       0.00606065      -0.01283812      -6.18712240
O        6.64979415       4.07740929      13.08514246        1       1.45859391      -0.07907828      -1.54199138       0.01371405      -0.01475540      -0.01464796      -8.69219673
O        2.96257850       5.31243346      14.72464029        1       0.69902970      -0.63900784      -0.00504382      -0.02162918      -0.00297762       0.02704933      -8.46645582
O       19.64896957      -4.64782935       3.44771022        1      -0.62093435      -0.36571402       0.59850363       0.00870599       0.00601861      -0.00008810      -8.57320344
O        4.69798443      -8.47215333       0.51148995        1      -0.07634468      -0.16008651      -0.28311706      -0.02128139      -0.02710736      -0.00686788      -8.67276180
O       10.82138986      15.85012260       9.11430097        1       1.01576827       1.72185569      -0.32673586      -0.00705269       0.00032490       0.01367348      -8.54852808
O       18.39514189      -5.12159830      16.76039809        1       0.02313862       0.93616137      -0.36017958       0.00771956       0.00232530      -0.00905362      -8.61976230
Si      18.42823526       1.48689771       8.84641130        0       1.16175872      -0.70178745       0.06953953      -0.01368058       0.01341765       0.00601951      -6.11871105
Si      16.17161236       4.77545262      14.50980196        0       0.92165577      -0.32126803      -0.79040405      -0.00693182      -0.01855408      -0.01353281      -6.12388378
Si      12.21253830       3.93504505      16.64820388        0      -0.50740956      -1.26177876       0.82754389      -0.00567412      -0.00462805       0.01355536      -6.23695618
O       15.60833393      -2.69049117      -1.80786021        1       0.97242725       1.96514040      -0.48445500       0.00169235      -0.00713665      -0.01084097      -8.77092063
O       12.80636225       9.50429251       1.42859210        1      -0.25214501       0.01879488      -1.02359756      -0.01319420       0.00159588      -0.00828186      -8.41945732
O       13.76728950      -7.71237848      17.01749879        1      -1.21205446      -0.02273202       0.34907458      -0.00095521      -0.00065973      -0.00097305      -8.69286144
O        7.10270514      14.37366906      18.85085196        1       0.57374207      -0.38460667       1.00078851       0.02819964      -0.01589097      -0.02590874      -8.59022987
O        7.16447355      12.48940970      11.65288013        1       0.47672331       0.59009243       0.60019332       0.01007950       0.02069277      -0.02943410      -8.69319427
O       17.17389179       7.35802858      23.02957492        1      -0.38340673       2.09157359      -1.06102645      -0.03326923       0.00824592      -0.00405277      -8.66267526
Si       7.62259205       5.30569420       5.16380153        0       1.34095518      -0.03619668      -0.50921507      -0.01959687      -0.00434982      -0.02056830      -6.21227270
Si      12.40285975       8.54219926       6.12784565        0       1.52335605      -1.20535789       0.70309624      -0.00407008       0.00090513       0.01965438      -6.15619189
Si       7.38311247       2.54046603      -2.53287553        0      -1.04048511      -0.19868807       1.36435209       0.00403242      -0.00655208      -0.00942605      -5.84592777
O       16.05653962       4.56457854       8.18211769        1      -1.23964471       1.11839128      -0.98568345       0.01071835       0.00849424       0.01583661      -8.55480182
O        6.48099116       5.80964901      -2.07622029        1       1.15244022      -0.43588820       0.80783704       0.01024397       0.00511584      -0.00444181      -8.53665626
O        7.01150385       6.24952157      14.77390120        1      -0.08523954      -0.18148523      -0.05790300      -0.01667280       0.00713234      -0.00132735      -8.66896760
O       12.50246248      10.03016336      -5.42091821        1       0.17867080      -1.24792563      -1.61714910       0.00579405      -0.02247032      -0.01953262      -8.57492769
O       13.66467276       7.51101199       5.86048133        1       0.56063538      -1.07491111      -0.58671317      -0.00661859       0.01331262      -0.00583725      -8.74491394
O        9.08019530      14.07671765       6.15196049        1      -0.82780947       1.18337834       2.12572594       0.00328336      -0.00793166       0.01119646      -8.61612737
Si       5.96410704       7.44942355      15.06662576        0      -0.07257025       1.30942162       1.36431327      -0.00268801      -0.00731868      -0.00738963      -6.19629055
Si      -2.59949064      -3.14704246      13.59952552        0       0.43114622      -1.53482430      -1.04973384       0.00659198      -0.01617639       0.01894128      -6.11689526
Si      13.14031537       1.35996910       7.12181185        0      -0.76694472      -0.88676315       1.29434301       0.01516030      -0.00184037       0.00537238      -6.14074093
O       14.72604634       5.87385135      10.06122437        1       1.58241926       0.22944461      -0.80356915      -0.01170014      -0.02455368      -0.00291937      -8.58963239
O       13.36272862      15.03873903       4.22627872        1       0.10496299      -0.62725256      -0.75952140      -0.01585536       0.00692096       0.00122425      -8.63688600
O       15.92125068       3.37960762      15.32051767        1       0.11687845       0.67503908      -0.93073653       0.00342791      -0.00173482       0.00408953      -8.64408815
O       10.98203772      10.52344534      13.99306067        1       0.44282200      -0.13083038      -1.04962701       0.00234266      -0.02483702       0.00401214      -8.57823408
O       -2.98175560      10.15426099      -0.80408099        1      -0.13294645      -0.10497430       0.03408525       0.00268307       0.03518817      -0.01314256      -8.49923885
O       -1.23647058       6.77350547      12.22913099        1      -0.08468596      -0.50330570       0.72971994       0.00415376      -0.00154885      -0.01747765      -8.59803665
Si       2.25642526      15.49731946      -2.13490667        0      -0.48890804       1.16184407       0.00322579       0.00602132       0.00208667       0.00844103      -5.81214148
Si       6.55416490      18.82766080       5.15154822        0      -1.02183643      -1.17243173      -0.65507616      -0.00271042       0.00803667      -0.02241261      -6.04380900
Si       7.63938079       9.92894786       4.98036268        0       0.35037524      -0.80051353       0.20928463      -0.00629985      -0.02116126      -0.00635768      -6.22316033
O        8.27637962       2.87079494       9.64667129        1       0.38169378      -0.33681579      -0.67821648      -0.00464098      -0.00521418      -0.00045568      -8.07397926
O        1.70313314      10.25738448      -5.02247786        1      -0.88512690       0.72396262      -0.33797278       0.02752346      -0.00831887      -0.01907849      -8.29524410
O        1.32728193      15.74336235       7.30812125        1      -1.80886597      -0.06147583      -0.08192420      -0.01197788      -0.00655104       0.00803876      -8.18516815
O        6.07195822      16.67749551       9.00975706        1      -0.33936539      -1.01766524      -0.36580846       0.00682719      -0.00292987      -0.00312948      -8.51736915
O       -1.41229505      23.32253629      10.37878392        1      -0.60884826       0.14403709       0.09278705      -0.00868841      -0.00863260      -0.02518745      -8.76339805
O        3.71393510      18.83390101      -8.57900830        1       0.46158897       0.85459772      -0.90882818      -0.00182453       0.00822469       0.02607329      -8.46467054
Si       2.95997196       9.29200281       5.26171927        0       2.15467446      -0.10634017       1.04860106      -0.00059017       0.01359516      -0.01350154      -5.82957274
Si      14.55836758      15.78266628      25.00676139        0       0.17159794      -0.83067614       0.25896890       0.00625474      -0.01836654       0.01892302      -6.22371155
Si       7.79591107      13.22125679      12.96948652        0       0.67529167      -1.40911586       0.44586402      -0.00867424       0.02433687       0.00583674      -6.22034556
O        8.63951181       9.77955250      17.06849990        1      -1.22222448      -0.19737093      -0.07698269      -0.01574808       0.01868638       0.01478681      -8.71635664
O        0.92848056       9.43518627       8.22873620        1      -0.18765140       0.81107245      -1.17677786       0.01203188       0.00358832       0.01587422      -8.87415969
O        1.44106198      18.91082011       5.86983060        1      -1.11266269      -2.33127552      -0.30656856      -0.01816441      -0.00857513       0.00519165      -8.72840917
O        9.51697897      10.62314973      11.81397077        1      -0.67082743       0.82573548       0.25748182      -0.01857597       0.00395973      -0.01755986      -8.39699066
O        4.80643411      14.64439186      -0.43701937        1      -1.76312645      -1.06306892       1.63502553      -0.01715738       0.01221744      -0.01303375      -8.59460390
O       10.23080718      17.98929845      10.60421866        1      -0.15838730       1.27442727       0.50337518       0.01644841      -0.02306424      -0.01053828      -8.55059993
